+ 0.0001 0 1 udp 222 ------- 0 0.0 1.0 0 0
- 0.0001 0 1 udp 222 ------- 0 0.0 1.0 0 0
r 0.01786 0 1 udp 222 ------- 0 0.0 1.0 0 0
+ 0.26905 0 1 udp 920 ------- 0 0.0 1.0 1 1
- 0.26905 0 1 udp 920 ------- 0 0.0 1.0 1 1
r 0.34265 0 1 udp 920 ------- 0 0.0 1.0 1 1
+ 0.412288 0 1 udp 85 ------- 0 0.0 1.0 2 2
- 0.412288 0 1 udp 85 ------- 0 0.0 1.0 2 2
r 0.419088 0 1 udp 85 ------- 0 0.0 1.0 2 2
+ 0.439841 0 1 udp 77 ------- 0 0.0 1.0 3 3
- 0.439841 0 1 udp 77 ------- 0 0.0 1.0 3 3
r 0.446001 0 1 udp 77 ------- 0 0.0 1.0 3 3
+ 0.478955 0 1 udp 170 ------- 0 0.0 1.0 4 4
- 0.478955 0 1 udp 170 ------- 0 0.0 1.0 4 4
r 0.492555 0 1 udp 170 ------- 0 0.0 1.0 4 4
+ 0.527772 0 1 udp 68 ------- 0 0.0 1.0 5 5
- 0.527772 0 1 udp 68 ------- 0 0.0 1.0 5 5
r 0.533212 0 1 udp 68 ------- 0 0.0 1.0 5 5
+ 0.567306 0 1 udp 1000 ------- 0 0.0 1.0 6 6
- 0.567306 0 1 udp 1000 ------- 0 0.0 1.0 6 6
+ 0.567306 0 1 udp 194 ------- 0 0.0 1.0 7 7
+ 0.628148 0 1 udp 823 ------- 0 0.0 1.0 8 8
+ 0.643171 0 1 udp 325 ------- 0 0.0 1.0 9 9
r 0.647306 0 1 udp 1000 ------- 0 0.0 1.0 6 6
- 0.647306 0 1 udp 194 ------- 0 0.0 1.0 7 7
+ 0.648259 0 1 udp 895 ------- 0 0.0 1.0 10 10
r 0.662826 0 1 udp 194 ------- 0 0.0 1.0 7 7
- 0.662826 0 1 udp 823 ------- 0 0.0 1.0 8 8
+ 0.706983 0 1 udp 399 ------- 0 0.0 1.0 11 11
+ 0.714201 0 1 udp 339 ------- 0 0.0 1.0 12 12
r 0.728666 0 1 udp 823 ------- 0 0.0 1.0 8 8
- 0.728666 0 1 udp 325 ------- 0 0.0 1.0 9 9
r 0.754666 0 1 udp 325 ------- 0 0.0 1.0 9 9
- 0.754666 0 1 udp 895 ------- 0 0.0 1.0 10 10
+ 0.759806 0 1 udp 289 ------- 0 0.0 1.0 13 13
+ 0.781911 0 1 udp 56 ------- 0 0.0 1.0 14 14
+ 0.794293 0 1 udp 578 ------- 0 0.0 1.0 15 15
+ 0.80017 0 1 udp 61 ------- 0 0.0 1.0 16 16
r 0.826266 0 1 udp 895 ------- 0 0.0 1.0 10 10
- 0.826266 0 1 udp 399 ------- 0 0.0 1.0 11 11
+ 0.84805 0 1 udp 103 ------- 0 0.0 1.0 17 17
r 0.858186 0 1 udp 399 ------- 0 0.0 1.0 11 11
- 0.858186 0 1 udp 339 ------- 0 0.0 1.0 12 12
+ 0.861167 0 1 udp 342 ------- 0 0.0 1.0 18 18
+ 0.86453 0 1 udp 343 ------- 0 0.0 1.0 19 19
r 0.885306 0 1 udp 339 ------- 0 0.0 1.0 12 12
- 0.885306 0 1 udp 289 ------- 0 0.0 1.0 13 13
r 0.908426 0 1 udp 289 ------- 0 0.0 1.0 13 13
- 0.908426 0 1 udp 56 ------- 0 0.0 1.0 14 14
r 0.912906 0 1 udp 56 ------- 0 0.0 1.0 14 14
- 0.912906 0 1 udp 578 ------- 0 0.0 1.0 15 15
+ 0.939095 0 1 udp 45 ------- 0 0.0 1.0 20 20
r 0.959146 0 1 udp 578 ------- 0 0.0 1.0 15 15
- 0.959146 0 1 udp 61 ------- 0 0.0 1.0 16 16
r 0.964026 0 1 udp 61 ------- 0 0.0 1.0 16 16
- 0.964026 0 1 udp 103 ------- 0 0.0 1.0 17 17
r 0.972266 0 1 udp 103 ------- 0 0.0 1.0 17 17
- 0.972266 0 1 udp 342 ------- 0 0.0 1.0 18 18
+ 0.995482 0 1 udp 44 ------- 0 0.0 1.0 21 21
+ 0.997342 0 1 udp 1000 ------- 0 0.0 1.0 22 22
+ 0.997342 0 1 udp 76 ------- 0 0.0 1.0 23 23
r 0.999626 0 1 udp 342 ------- 0 0.0 1.0 18 18
- 0.999626 0 1 udp 343 ------- 0 0.0 1.0 19 19
r 1.027066 0 1 udp 343 ------- 0 0.0 1.0 19 19
- 1.027066 0 1 udp 45 ------- 0 0.0 1.0 20 20
r 1.030666 0 1 udp 45 ------- 0 0.0 1.0 20 20
- 1.030666 0 1 udp 44 ------- 0 0.0 1.0 21 21
r 1.034186 0 1 udp 44 ------- 0 0.0 1.0 21 21
- 1.034186 0 1 udp 1000 ------- 0 0.0 1.0 22 22
+ 1.071044 0 1 udp 197 ------- 0 0.0 1.0 24 24
r 1.114186 0 1 udp 1000 ------- 0 0.0 1.0 22 22
- 1.114186 0 1 udp 76 ------- 0 0.0 1.0 23 23
r 1.120266 0 1 udp 76 ------- 0 0.0 1.0 23 23
- 1.120266 0 1 udp 197 ------- 0 0.0 1.0 24 24
r 1.136026 0 1 udp 197 ------- 0 0.0 1.0 24 24
+ 1.223483 0 1 udp 793 ------- 0 0.0 1.0 25 25
- 1.223483 0 1 udp 793 ------- 0 0.0 1.0 25 25
+ 1.260239 0 1 udp 515 ------- 0 0.0 1.0 26 26
+ 1.273793 0 1 udp 230 ------- 0 0.0 1.0 27 27
+ 1.285866 0 1 udp 508 ------- 0 0.0 1.0 28 28
r 1.286923 0 1 udp 793 ------- 0 0.0 1.0 25 25
- 1.286923 0 1 udp 515 ------- 0 0.0 1.0 26 26
+ 1.290298 0 1 udp 324 ------- 0 0.0 1.0 29 29
+ 1.310132 0 1 udp 423 ------- 0 0.0 1.0 30 30
r 1.328123 0 1 udp 515 ------- 0 0.0 1.0 26 26
- 1.328123 0 1 udp 230 ------- 0 0.0 1.0 27 27
r 1.346523 0 1 udp 230 ------- 0 0.0 1.0 27 27
- 1.346523 0 1 udp 508 ------- 0 0.0 1.0 28 28
r 1.387163 0 1 udp 508 ------- 0 0.0 1.0 28 28
- 1.387163 0 1 udp 324 ------- 0 0.0 1.0 29 29
r 1.413083 0 1 udp 324 ------- 0 0.0 1.0 29 29
- 1.413083 0 1 udp 423 ------- 0 0.0 1.0 30 30
+ 1.431058 0 1 udp 92 ------- 0 0.0 1.0 31 31
r 1.446923 0 1 udp 423 ------- 0 0.0 1.0 30 30
- 1.446923 0 1 udp 92 ------- 0 0.0 1.0 31 31
r 1.454283 0 1 udp 92 ------- 0 0.0 1.0 31 31
+ 1.487652 0 1 udp 98 ------- 0 0.0 1.0 32 32
- 1.487652 0 1 udp 98 ------- 0 0.0 1.0 32 32
+ 1.489492 0 1 udp 138 ------- 0 0.0 1.0 33 33
r 1.495492 0 1 udp 98 ------- 0 0.0 1.0 32 32
- 1.495492 0 1 udp 138 ------- 0 0.0 1.0 33 33
r 1.506532 0 1 udp 138 ------- 0 0.0 1.0 33 33
+ 1.542567 0 1 udp 9 ------- 0 0.0 1.0 34 34
- 1.542567 0 1 udp 9 ------- 0 0.0 1.0 34 34
r 1.543287 0 1 udp 9 ------- 0 0.0 1.0 34 34
+ 1.600543 0 1 udp 269 ------- 0 0.0 1.0 35 35
- 1.600543 0 1 udp 269 ------- 0 0.0 1.0 35 35
r 1.622063 0 1 udp 269 ------- 0 0.0 1.0 35 35
+ 1.681115 0 1 udp 55 ------- 0 0.0 1.0 36 36
- 1.681115 0 1 udp 55 ------- 0 0.0 1.0 36 36
r 1.685515 0 1 udp 55 ------- 0 0.0 1.0 36 36
+ 1.781892 0 1 udp 117 ------- 0 0.0 1.0 37 37
- 1.781892 0 1 udp 117 ------- 0 0.0 1.0 37 37
r 1.791252 0 1 udp 117 ------- 0 0.0 1.0 37 37
+ 1.803084 0 1 udp 920 ------- 0 0.0 1.0 38 38
- 1.803084 0 1 udp 920 ------- 0 0.0 1.0 38 38
+ 1.832195 0 1 udp 39 ------- 0 0.0 1.0 39 39
+ 1.839108 0 1 udp 51 ------- 0 0.0 1.0 40 40
+ 1.849795 0 1 udp 116 ------- 0 0.0 1.0 41 41
+ 1.867783 0 1 udp 391 ------- 0 0.0 1.0 42 42
+ 1.875211 0 1 udp 77 ------- 0 0.0 1.0 43 43
r 1.876684 0 1 udp 920 ------- 0 0.0 1.0 38 38
- 1.876684 0 1 udp 39 ------- 0 0.0 1.0 39 39
r 1.879804 0 1 udp 39 ------- 0 0.0 1.0 39 39
- 1.879804 0 1 udp 51 ------- 0 0.0 1.0 40 40
r 1.883884 0 1 udp 51 ------- 0 0.0 1.0 40 40
- 1.883884 0 1 udp 116 ------- 0 0.0 1.0 41 41
r 1.893164 0 1 udp 116 ------- 0 0.0 1.0 41 41
- 1.893164 0 1 udp 391 ------- 0 0.0 1.0 42 42
+ 1.89483 0 1 udp 155 ------- 0 0.0 1.0 44 44
+ 1.903033 0 1 udp 341 ------- 0 0.0 1.0 45 45
r 1.924444 0 1 udp 391 ------- 0 0.0 1.0 42 42
- 1.924444 0 1 udp 77 ------- 0 0.0 1.0 43 43
r 1.930604 0 1 udp 77 ------- 0 0.0 1.0 43 43
- 1.930604 0 1 udp 155 ------- 0 0.0 1.0 44 44
r 1.943004 0 1 udp 155 ------- 0 0.0 1.0 44 44
- 1.943004 0 1 udp 341 ------- 0 0.0 1.0 45 45
+ 1.966912 0 1 udp 373 ------- 0 0.0 1.0 46 46
r 1.970284 0 1 udp 341 ------- 0 0.0 1.0 45 45
- 1.970284 0 1 udp 373 ------- 0 0.0 1.0 46 46
+ 1.987279 0 1 udp 941 ------- 0 0.0 1.0 47 47
r 2.000124 0 1 udp 373 ------- 0 0.0 1.0 46 46
- 2.000124 0 1 udp 941 ------- 0 0.0 1.0 47 47
r 2.075404 0 1 udp 941 ------- 0 0.0 1.0 47 47
+ 2.278638 0 1 udp 137 ------- 0 0.0 1.0 48 48
- 2.278638 0 1 udp 137 ------- 0 0.0 1.0 48 48
r 2.289598 0 1 udp 137 ------- 0 0.0 1.0 48 48
+ 2.315742 0 1 udp 1000 ------- 0 0.0 1.0 49 49
- 2.315742 0 1 udp 1000 ------- 0 0.0 1.0 49 49
+ 2.315742 0 1 udp 295 ------- 0 0.0 1.0 50 50
+ 2.318845 0 1 udp 450 ------- 0 0.0 1.0 51 51
+ 2.352757 0 1 udp 430 ------- 0 0.0 1.0 52 52
r 2.395742 0 1 udp 1000 ------- 0 0.0 1.0 49 49
- 2.395742 0 1 udp 295 ------- 0 0.0 1.0 50 50
r 2.419342 0 1 udp 295 ------- 0 0.0 1.0 50 50
- 2.419342 0 1 udp 450 ------- 0 0.0 1.0 51 51
r 2.455342 0 1 udp 450 ------- 0 0.0 1.0 51 51
- 2.455342 0 1 udp 430 ------- 0 0.0 1.0 52 52
r 2.489742 0 1 udp 430 ------- 0 0.0 1.0 52 52
+ 2.544633 0 1 udp 48 ------- 0 0.0 1.0 53 53
- 2.544633 0 1 udp 48 ------- 0 0.0 1.0 53 53
r 2.548473 0 1 udp 48 ------- 0 0.0 1.0 53 53
+ 2.548889 0 1 udp 668 ------- 0 0.0 1.0 54 54
- 2.548889 0 1 udp 668 ------- 0 0.0 1.0 54 54
+ 2.556158 0 1 udp 106 ------- 0 0.0 1.0 55 55
r 2.602329 0 1 udp 668 ------- 0 0.0 1.0 54 54
- 2.602329 0 1 udp 106 ------- 0 0.0 1.0 55 55
r 2.610809 0 1 udp 106 ------- 0 0.0 1.0 55 55
+ 2.672112 0 1 udp 89 ------- 0 0.0 1.0 56 56
- 2.672112 0 1 udp 89 ------- 0 0.0 1.0 56 56
r 2.679232 0 1 udp 89 ------- 0 0.0 1.0 56 56
+ 2.688461 0 1 udp 301 ------- 0 0.0 1.0 57 57
- 2.688461 0 1 udp 301 ------- 0 0.0 1.0 57 57
+ 2.71043 0 1 udp 1000 ------- 0 0.0 1.0 58 58
+ 2.71043 0 1 udp 566 ------- 0 0.0 1.0 59 59
r 2.712541 0 1 udp 301 ------- 0 0.0 1.0 57 57
- 2.712541 0 1 udp 1000 ------- 0 0.0 1.0 58 58
+ 2.763362 0 1 udp 313 ------- 0 0.0 1.0 60 60
+ 2.791011 0 1 udp 806 ------- 0 0.0 1.0 61 61
r 2.792541 0 1 udp 1000 ------- 0 0.0 1.0 58 58
- 2.792541 0 1 udp 566 ------- 0 0.0 1.0 59 59
+ 2.828216 0 1 udp 584 ------- 0 0.0 1.0 62 62
+ 2.831786 0 1 udp 326 ------- 0 0.0 1.0 63 63
r 2.837821 0 1 udp 566 ------- 0 0.0 1.0 59 59
- 2.837821 0 1 udp 313 ------- 0 0.0 1.0 60 60
+ 2.86017 0 1 udp 116 ------- 0 0.0 1.0 64 64
r 2.862861 0 1 udp 313 ------- 0 0.0 1.0 60 60
- 2.862861 0 1 udp 806 ------- 0 0.0 1.0 61 61
+ 2.890398 0 1 udp 41 ------- 0 0.0 1.0 65 65
+ 2.914778 0 1 udp 61 ------- 0 0.0 1.0 66 66
r 2.927341 0 1 udp 806 ------- 0 0.0 1.0 61 61
- 2.927341 0 1 udp 584 ------- 0 0.0 1.0 62 62
+ 2.930717 0 1 udp 548 ------- 0 0.0 1.0 67 67
r 2.974061 0 1 udp 584 ------- 0 0.0 1.0 62 62
- 2.974061 0 1 udp 326 ------- 0 0.0 1.0 63 63
+ 2.992734 0 1 udp 657 ------- 0 0.0 1.0 68 68
r 3.000141 0 1 udp 326 ------- 0 0.0 1.0 63 63
- 3.000141 0 1 udp 116 ------- 0 0.0 1.0 64 64
r 3.009421 0 1 udp 116 ------- 0 0.0 1.0 64 64
- 3.009421 0 1 udp 41 ------- 0 0.0 1.0 65 65
r 3.012701 0 1 udp 41 ------- 0 0.0 1.0 65 65
- 3.012701 0 1 udp 61 ------- 0 0.0 1.0 66 66
r 3.017581 0 1 udp 61 ------- 0 0.0 1.0 66 66
- 3.017581 0 1 udp 548 ------- 0 0.0 1.0 67 67
r 3.061421 0 1 udp 548 ------- 0 0.0 1.0 67 67
- 3.061421 0 1 udp 657 ------- 0 0.0 1.0 68 68
+ 3.085032 0 1 udp 1000 ------- 0 0.0 1.0 69 69
+ 3.085032 0 1 udp 224 ------- 0 0.0 1.0 70 70
+ 3.089669 0 1 udp 132 ------- 0 0.0 1.0 71 71
+ 3.108097 0 1 udp 70 ------- 0 0.0 1.0 72 72
r 3.113981 0 1 udp 657 ------- 0 0.0 1.0 68 68
- 3.113981 0 1 udp 1000 ------- 0 0.0 1.0 69 69
+ 3.158049 0 1 udp 409 ------- 0 0.0 1.0 73 73
r 3.193981 0 1 udp 1000 ------- 0 0.0 1.0 69 69
- 3.193981 0 1 udp 224 ------- 0 0.0 1.0 70 70
r 3.211901 0 1 udp 224 ------- 0 0.0 1.0 70 70
- 3.211901 0 1 udp 132 ------- 0 0.0 1.0 71 71
r 3.222461 0 1 udp 132 ------- 0 0.0 1.0 71 71
- 3.222461 0 1 udp 70 ------- 0 0.0 1.0 72 72
r 3.228061 0 1 udp 70 ------- 0 0.0 1.0 72 72
- 3.228061 0 1 udp 409 ------- 0 0.0 1.0 73 73
+ 3.253515 0 1 udp 171 ------- 0 0.0 1.0 74 74
r 3.260781 0 1 udp 409 ------- 0 0.0 1.0 73 73
- 3.260781 0 1 udp 171 ------- 0 0.0 1.0 74 74
+ 3.26128 0 1 udp 558 ------- 0 0.0 1.0 75 75
r 3.274461 0 1 udp 171 ------- 0 0.0 1.0 74 74
- 3.274461 0 1 udp 558 ------- 0 0.0 1.0 75 75
+ 3.289431 0 1 udp 23 ------- 0 0.0 1.0 76 76
+ 3.316932 0 1 udp 39 ------- 0 0.0 1.0 77 77
r 3.319101 0 1 udp 558 ------- 0 0.0 1.0 75 75
- 3.319101 0 1 udp 23 ------- 0 0.0 1.0 76 76
r 3.320941 0 1 udp 23 ------- 0 0.0 1.0 76 76
- 3.320941 0 1 udp 39 ------- 0 0.0 1.0 77 77
r 3.324061 0 1 udp 39 ------- 0 0.0 1.0 77 77
+ 3.34308 0 1 udp 38 ------- 0 0.0 1.0 78 78
- 3.34308 0 1 udp 38 ------- 0 0.0 1.0 78 78
+ 3.344535 0 1 udp 21 ------- 0 0.0 1.0 79 79
r 3.34612 0 1 udp 38 ------- 0 0.0 1.0 78 78
- 3.34612 0 1 udp 21 ------- 0 0.0 1.0 79 79
r 3.3478 0 1 udp 21 ------- 0 0.0 1.0 79 79
+ 3.40801 0 1 udp 237 ------- 0 0.0 1.0 80 80
- 3.40801 0 1 udp 237 ------- 0 0.0 1.0 80 80
r 3.42697 0 1 udp 237 ------- 0 0.0 1.0 80 80
+ 3.428743 0 1 udp 11 ------- 0 0.0 1.0 81 81
- 3.428743 0 1 udp 11 ------- 0 0.0 1.0 81 81
r 3.429623 0 1 udp 11 ------- 0 0.0 1.0 81 81
+ 3.520015 0 1 udp 48 ------- 0 0.0 1.0 82 82
- 3.520015 0 1 udp 48 ------- 0 0.0 1.0 82 82
r 3.523855 0 1 udp 48 ------- 0 0.0 1.0 82 82
+ 3.54216 0 1 udp 506 ------- 0 0.0 1.0 83 83
- 3.54216 0 1 udp 506 ------- 0 0.0 1.0 83 83
+ 3.552767 0 1 udp 109 ------- 0 0.0 1.0 84 84
+ 3.577513 0 1 udp 149 ------- 0 0.0 1.0 85 85
r 3.58264 0 1 udp 506 ------- 0 0.0 1.0 83 83
- 3.58264 0 1 udp 109 ------- 0 0.0 1.0 84 84
r 3.59136 0 1 udp 109 ------- 0 0.0 1.0 84 84
- 3.59136 0 1 udp 149 ------- 0 0.0 1.0 85 85
r 3.60328 0 1 udp 149 ------- 0 0.0 1.0 85 85
+ 3.630727 0 1 udp 690 ------- 0 0.0 1.0 86 86
- 3.630727 0 1 udp 690 ------- 0 0.0 1.0 86 86
+ 3.644858 0 1 udp 368 ------- 0 0.0 1.0 87 87
r 3.685927 0 1 udp 690 ------- 0 0.0 1.0 86 86
- 3.685927 0 1 udp 368 ------- 0 0.0 1.0 87 87
+ 3.689604 0 1 udp 160 ------- 0 0.0 1.0 88 88
+ 3.706152 0 1 udp 482 ------- 0 0.0 1.0 89 89
+ 3.711444 0 1 udp 623 ------- 0 0.0 1.0 90 90
r 3.715367 0 1 udp 368 ------- 0 0.0 1.0 87 87
- 3.715367 0 1 udp 160 ------- 0 0.0 1.0 88 88
r 3.728167 0 1 udp 160 ------- 0 0.0 1.0 88 88
- 3.728167 0 1 udp 482 ------- 0 0.0 1.0 89 89
r 3.766727 0 1 udp 482 ------- 0 0.0 1.0 89 89
- 3.766727 0 1 udp 623 ------- 0 0.0 1.0 90 90
+ 3.771817 0 1 udp 969 ------- 0 0.0 1.0 91 91
r 3.816567 0 1 udp 623 ------- 0 0.0 1.0 90 90
- 3.816567 0 1 udp 969 ------- 0 0.0 1.0 91 91
+ 3.878898 0 1 udp 1000 ------- 0 0.0 1.0 92 92
+ 3.878898 0 1 udp 106 ------- 0 0.0 1.0 93 93
r 3.894087 0 1 udp 969 ------- 0 0.0 1.0 91 91
- 3.894087 0 1 udp 1000 ------- 0 0.0 1.0 92 92
+ 3.950451 0 1 udp 583 ------- 0 0.0 1.0 94 94
r 3.974087 0 1 udp 1000 ------- 0 0.0 1.0 92 92
- 3.974087 0 1 udp 106 ------- 0 0.0 1.0 93 93
r 3.982567 0 1 udp 106 ------- 0 0.0 1.0 93 93
- 3.982567 0 1 udp 583 ------- 0 0.0 1.0 94 94
+ 3.984931 0 1 udp 18 ------- 0 0.0 1.0 95 95
r 4.029207 0 1 udp 583 ------- 0 0.0 1.0 94 94
- 4.029207 0 1 udp 18 ------- 0 0.0 1.0 95 95
r 4.030647 0 1 udp 18 ------- 0 0.0 1.0 95 95
+ 4.082377 0 1 udp 131 ------- 0 0.0 1.0 96 96
- 4.082377 0 1 udp 131 ------- 0 0.0 1.0 96 96
+ 4.088968 0 1 udp 71 ------- 0 0.0 1.0 97 97
r 4.092857 0 1 udp 131 ------- 0 0.0 1.0 96 96
- 4.092857 0 1 udp 71 ------- 0 0.0 1.0 97 97
r 4.098537 0 1 udp 71 ------- 0 0.0 1.0 97 97
+ 4.117357 0 1 udp 231 ------- 0 0.0 1.0 98 98
- 4.117357 0 1 udp 231 ------- 0 0.0 1.0 98 98
r 4.135837 0 1 udp 231 ------- 0 0.0 1.0 98 98
+ 4.148818 0 1 udp 206 ------- 0 0.0 1.0 99 99
- 4.148818 0 1 udp 206 ------- 0 0.0 1.0 99 99
r 4.165298 0 1 udp 206 ------- 0 0.0 1.0 99 99
+ 4.217553 0 1 udp 72 ------- 0 0.0 1.0 100 100
- 4.217553 0 1 udp 72 ------- 0 0.0 1.0 100 100
r 4.223313 0 1 udp 72 ------- 0 0.0 1.0 100 100
+ 4.247001 0 1 udp 58 ------- 0 0.0 1.0 101 101
- 4.247001 0 1 udp 58 ------- 0 0.0 1.0 101 101
r 4.251641 0 1 udp 58 ------- 0 0.0 1.0 101 101
+ 4.254267 0 1 udp 88 ------- 0 0.0 1.0 102 102
- 4.254267 0 1 udp 88 ------- 0 0.0 1.0 102 102
r 4.261307 0 1 udp 88 ------- 0 0.0 1.0 102 102
+ 4.444401 0 1 udp 589 ------- 0 0.0 1.0 103 103
- 4.444401 0 1 udp 589 ------- 0 0.0 1.0 103 103
r 4.491521 0 1 udp 589 ------- 0 0.0 1.0 103 103
+ 4.531137 0 1 udp 280 ------- 0 0.0 1.0 104 104
- 4.531137 0 1 udp 280 ------- 0 0.0 1.0 104 104
+ 4.537076 0 1 udp 496 ------- 0 0.0 1.0 105 105
r 4.553537 0 1 udp 280 ------- 0 0.0 1.0 104 104
- 4.553537 0 1 udp 496 ------- 0 0.0 1.0 105 105
r 4.593217 0 1 udp 496 ------- 0 0.0 1.0 105 105
+ 4.598961 0 1 udp 133 ------- 0 0.0 1.0 106 106
- 4.598961 0 1 udp 133 ------- 0 0.0 1.0 106 106
r 4.609601 0 1 udp 133 ------- 0 0.0 1.0 106 106
+ 4.73079 0 1 udp 272 ------- 0 0.0 1.0 107 107
- 4.73079 0 1 udp 272 ------- 0 0.0 1.0 107 107
r 4.75255 0 1 udp 272 ------- 0 0.0 1.0 107 107
+ 4.759059 0 1 udp 1000 ------- 0 0.0 1.0 108 108
- 4.759059 0 1 udp 1000 ------- 0 0.0 1.0 108 108
+ 4.759059 0 1 udp 832 ------- 0 0.0 1.0 109 109
+ 4.798717 0 1 udp 505 ------- 0 0.0 1.0 110 110
+ 4.811215 0 1 udp 41 ------- 0 0.0 1.0 111 111
+ 4.836698 0 1 udp 280 ------- 0 0.0 1.0 112 112
r 4.839059 0 1 udp 1000 ------- 0 0.0 1.0 108 108
- 4.839059 0 1 udp 832 ------- 0 0.0 1.0 109 109
+ 4.871736 0 1 udp 5 ------- 0 0.0 1.0 113 113
r 4.905619 0 1 udp 832 ------- 0 0.0 1.0 109 109
- 4.905619 0 1 udp 505 ------- 0 0.0 1.0 110 110
r 4.946019 0 1 udp 505 ------- 0 0.0 1.0 110 110
- 4.946019 0 1 udp 41 ------- 0 0.0 1.0 111 111
r 4.949299 0 1 udp 41 ------- 0 0.0 1.0 111 111
- 4.949299 0 1 udp 280 ------- 0 0.0 1.0 112 112
r 4.971699 0 1 udp 280 ------- 0 0.0 1.0 112 112
- 4.971699 0 1 udp 5 ------- 0 0.0 1.0 113 113
r 4.972099 0 1 udp 5 ------- 0 0.0 1.0 113 113
+ 4.980271 0 1 udp 259 ------- 0 0.0 1.0 114 114
- 4.980271 0 1 udp 259 ------- 0 0.0 1.0 114 114
r 5.000991 0 1 udp 259 ------- 0 0.0 1.0 114 114
+ 5.008482 0 1 udp 355 ------- 0 0.0 1.0 115 115
- 5.008482 0 1 udp 355 ------- 0 0.0 1.0 115 115
+ 5.023377 0 1 udp 392 ------- 0 0.0 1.0 116 116
r 5.036882 0 1 udp 355 ------- 0 0.0 1.0 115 115
- 5.036882 0 1 udp 392 ------- 0 0.0 1.0 116 116
+ 5.066672 0 1 udp 1000 ------- 0 0.0 1.0 117 117
+ 5.066672 0 1 udp 264 ------- 0 0.0 1.0 118 118
r 5.068242 0 1 udp 392 ------- 0 0.0 1.0 116 116
- 5.068242 0 1 udp 1000 ------- 0 0.0 1.0 117 117
+ 5.068459 0 1 udp 719 ------- 0 0.0 1.0 119 119
+ 5.083093 0 1 udp 174 ------- 0 0.0 1.0 120 120
+ 5.110374 0 1 udp 1000 ------- 0 0.0 1.0 121 121
+ 5.110374 0 1 udp 96 ------- 0 0.0 1.0 122 122
r 5.148242 0 1 udp 1000 ------- 0 0.0 1.0 117 117
- 5.148242 0 1 udp 264 ------- 0 0.0 1.0 118 118
r 5.169362 0 1 udp 264 ------- 0 0.0 1.0 118 118
- 5.169362 0 1 udp 719 ------- 0 0.0 1.0 119 119
+ 5.178964 0 1 udp 449 ------- 0 0.0 1.0 123 123
+ 5.201216 0 1 udp 371 ------- 0 0.0 1.0 124 124
r 5.226882 0 1 udp 719 ------- 0 0.0 1.0 119 119
- 5.226882 0 1 udp 174 ------- 0 0.0 1.0 120 120
+ 5.238478 0 1 udp 96 ------- 0 0.0 1.0 125 125
r 5.240802 0 1 udp 174 ------- 0 0.0 1.0 120 120
- 5.240802 0 1 udp 1000 ------- 0 0.0 1.0 121 121
+ 5.271607 0 1 udp 231 ------- 0 0.0 1.0 126 126
+ 5.300189 0 1 udp 135 ------- 0 0.0 1.0 127 127
+ 5.306007 0 1 udp 248 ------- 0 0.0 1.0 128 128
r 5.320802 0 1 udp 1000 ------- 0 0.0 1.0 121 121
- 5.320802 0 1 udp 96 ------- 0 0.0 1.0 122 122
r 5.328482 0 1 udp 96 ------- 0 0.0 1.0 122 122
- 5.328482 0 1 udp 449 ------- 0 0.0 1.0 123 123
+ 5.33206 0 1 udp 206 ------- 0 0.0 1.0 129 129
+ 5.337299 0 1 udp 498 ------- 0 0.0 1.0 130 130
+ 5.339968 0 1 udp 440 ------- 0 0.0 1.0 131 131
r 5.364402 0 1 udp 449 ------- 0 0.0 1.0 123 123
- 5.364402 0 1 udp 371 ------- 0 0.0 1.0 124 124
r 5.394082 0 1 udp 371 ------- 0 0.0 1.0 124 124
- 5.394082 0 1 udp 96 ------- 0 0.0 1.0 125 125
r 5.401762 0 1 udp 96 ------- 0 0.0 1.0 125 125
- 5.401762 0 1 udp 231 ------- 0 0.0 1.0 126 126
r 5.420242 0 1 udp 231 ------- 0 0.0 1.0 126 126
- 5.420242 0 1 udp 135 ------- 0 0.0 1.0 127 127
r 5.431042 0 1 udp 135 ------- 0 0.0 1.0 127 127
- 5.431042 0 1 udp 248 ------- 0 0.0 1.0 128 128
+ 5.431941 0 1 udp 284 ------- 0 0.0 1.0 132 132
+ 5.437706 0 1 udp 260 ------- 0 0.0 1.0 133 133
+ 5.438135 0 1 udp 57 ------- 0 0.0 1.0 134 134
r 5.450882 0 1 udp 248 ------- 0 0.0 1.0 128 128
- 5.450882 0 1 udp 206 ------- 0 0.0 1.0 129 129
r 5.467362 0 1 udp 206 ------- 0 0.0 1.0 129 129
- 5.467362 0 1 udp 498 ------- 0 0.0 1.0 130 130
+ 5.484977 0 1 udp 39 ------- 0 0.0 1.0 135 135
+ 5.487945 0 1 udp 254 ------- 0 0.0 1.0 136 136
r 5.507202 0 1 udp 498 ------- 0 0.0 1.0 130 130
- 5.507202 0 1 udp 440 ------- 0 0.0 1.0 131 131
+ 5.525376 0 1 udp 304 ------- 0 0.0 1.0 137 137
+ 5.534233 0 1 udp 1000 ------- 0 0.0 1.0 138 138
+ 5.534233 0 1 udp 3 ------- 0 0.0 1.0 139 139
r 5.542402 0 1 udp 440 ------- 0 0.0 1.0 131 131
- 5.542402 0 1 udp 284 ------- 0 0.0 1.0 132 132
+ 5.542941 0 1 udp 408 ------- 0 0.0 1.0 140 140
r 5.565122 0 1 udp 284 ------- 0 0.0 1.0 132 132
- 5.565122 0 1 udp 260 ------- 0 0.0 1.0 133 133
r 5.585922 0 1 udp 260 ------- 0 0.0 1.0 133 133
- 5.585922 0 1 udp 57 ------- 0 0.0 1.0 134 134
+ 5.587204 0 1 udp 201 ------- 0 0.0 1.0 141 141
r 5.590482 0 1 udp 57 ------- 0 0.0 1.0 134 134
- 5.590482 0 1 udp 39 ------- 0 0.0 1.0 135 135
r 5.593602 0 1 udp 39 ------- 0 0.0 1.0 135 135
- 5.593602 0 1 udp 254 ------- 0 0.0 1.0 136 136
r 5.613922 0 1 udp 254 ------- 0 0.0 1.0 136 136
- 5.613922 0 1 udp 304 ------- 0 0.0 1.0 137 137
+ 5.614369 0 1 udp 210 ------- 0 0.0 1.0 142 142
+ 5.628761 0 1 udp 1000 ------- 0 0.0 1.0 143 143
+ 5.628761 0 1 udp 273 ------- 0 0.0 1.0 144 144
r 5.638242 0 1 udp 304 ------- 0 0.0 1.0 137 137
- 5.638242 0 1 udp 1000 ------- 0 0.0 1.0 138 138
+ 5.675264 0 1 udp 268 ------- 0 0.0 1.0 145 145
r 5.718242 0 1 udp 1000 ------- 0 0.0 1.0 138 138
- 5.718242 0 1 udp 3 ------- 0 0.0 1.0 139 139
r 5.718482 0 1 udp 3 ------- 0 0.0 1.0 139 139
- 5.718482 0 1 udp 408 ------- 0 0.0 1.0 140 140
r 5.751122 0 1 udp 408 ------- 0 0.0 1.0 140 140
- 5.751122 0 1 udp 201 ------- 0 0.0 1.0 141 141
+ 5.766987 0 1 udp 68 ------- 0 0.0 1.0 146 146
r 5.767202 0 1 udp 201 ------- 0 0.0 1.0 141 141
- 5.767202 0 1 udp 210 ------- 0 0.0 1.0 142 142
r 5.784002 0 1 udp 210 ------- 0 0.0 1.0 142 142
- 5.784002 0 1 udp 1000 ------- 0 0.0 1.0 143 143
+ 5.851367 0 1 udp 276 ------- 0 0.0 1.0 147 147
r 5.864002 0 1 udp 1000 ------- 0 0.0 1.0 143 143
- 5.864002 0 1 udp 273 ------- 0 0.0 1.0 144 144
+ 5.875431 0 1 udp 193 ------- 0 0.0 1.0 148 148
r 5.885842 0 1 udp 273 ------- 0 0.0 1.0 144 144
- 5.885842 0 1 udp 268 ------- 0 0.0 1.0 145 145
+ 5.906386 0 1 udp 61 ------- 0 0.0 1.0 149 149
r 5.907282 0 1 udp 268 ------- 0 0.0 1.0 145 145
- 5.907282 0 1 udp 68 ------- 0 0.0 1.0 146 146
r 5.912722 0 1 udp 68 ------- 0 0.0 1.0 146 146
- 5.912722 0 1 udp 276 ------- 0 0.0 1.0 147 147
+ 5.919184 0 1 udp 452 ------- 0 0.0 1.0 150 150
r 5.934802 0 1 udp 276 ------- 0 0.0 1.0 147 147
- 5.934802 0 1 udp 193 ------- 0 0.0 1.0 148 148
+ 5.947172 0 1 udp 430 ------- 0 0.0 1.0 151 151
r 5.950242 0 1 udp 193 ------- 0 0.0 1.0 148 148
- 5.950242 0 1 udp 61 ------- 0 0.0 1.0 149 149
r 5.955122 0 1 udp 61 ------- 0 0.0 1.0 149 149
- 5.955122 0 1 udp 452 ------- 0 0.0 1.0 150 150
r 5.991282 0 1 udp 452 ------- 0 0.0 1.0 150 150
- 5.991282 0 1 udp 430 ------- 0 0.0 1.0 151 151
+ 6.01612 0 1 udp 287 ------- 0 0.0 1.0 152 152
r 6.025682 0 1 udp 430 ------- 0 0.0 1.0 151 151
- 6.025682 0 1 udp 287 ------- 0 0.0 1.0 152 152
+ 6.034406 0 1 udp 374 ------- 0 0.0 1.0 153 153
r 6.048642 0 1 udp 287 ------- 0 0.0 1.0 152 152
- 6.048642 0 1 udp 374 ------- 0 0.0 1.0 153 153
r 6.078562 0 1 udp 374 ------- 0 0.0 1.0 153 153
+ 6.080054 0 1 udp 934 ------- 0 0.0 1.0 154 154
- 6.080054 0 1 udp 934 ------- 0 0.0 1.0 154 154
r 6.154774 0 1 udp 934 ------- 0 0.0 1.0 154 154
+ 6.158223 0 1 udp 274 ------- 0 0.0 1.0 155 155
- 6.158223 0 1 udp 274 ------- 0 0.0 1.0 155 155
r 6.180143 0 1 udp 274 ------- 0 0.0 1.0 155 155
+ 6.183237 0 1 udp 309 ------- 0 0.0 1.0 156 156
- 6.183237 0 1 udp 309 ------- 0 0.0 1.0 156 156
r 6.207957 0 1 udp 309 ------- 0 0.0 1.0 156 156
+ 6.269786 0 1 udp 209 ------- 0 0.0 1.0 157 157
- 6.269786 0 1 udp 209 ------- 0 0.0 1.0 157 157
r 6.286506 0 1 udp 209 ------- 0 0.0 1.0 157 157
+ 6.372416 0 1 udp 30 ------- 0 0.0 1.0 158 158
- 6.372416 0 1 udp 30 ------- 0 0.0 1.0 158 158
r 6.374816 0 1 udp 30 ------- 0 0.0 1.0 158 158
+ 6.45945 0 1 udp 338 ------- 0 0.0 1.0 159 159
- 6.45945 0 1 udp 338 ------- 0 0.0 1.0 159 159
r 6.48649 0 1 udp 338 ------- 0 0.0 1.0 159 159
+ 6.499582 0 1 udp 110 ------- 0 0.0 1.0 160 160
- 6.499582 0 1 udp 110 ------- 0 0.0 1.0 160 160
r 6.508382 0 1 udp 110 ------- 0 0.0 1.0 160 160
+ 6.511269 0 1 udp 5 ------- 0 0.0 1.0 161 161
- 6.511269 0 1 udp 5 ------- 0 0.0 1.0 161 161
r 6.511669 0 1 udp 5 ------- 0 0.0 1.0 161 161
+ 6.564858 0 1 udp 86 ------- 0 0.0 1.0 162 162
- 6.564858 0 1 udp 86 ------- 0 0.0 1.0 162 162
r 6.571738 0 1 udp 86 ------- 0 0.0 1.0 162 162
+ 6.599054 0 1 udp 264 ------- 0 0.0 1.0 163 163
- 6.599054 0 1 udp 264 ------- 0 0.0 1.0 163 163
+ 6.61572 0 1 udp 38 ------- 0 0.0 1.0 164 164
r 6.620174 0 1 udp 264 ------- 0 0.0 1.0 163 163
- 6.620174 0 1 udp 38 ------- 0 0.0 1.0 164 164
r 6.623214 0 1 udp 38 ------- 0 0.0 1.0 164 164
+ 6.683871 0 1 udp 54 ------- 0 0.0 1.0 165 165
- 6.683871 0 1 udp 54 ------- 0 0.0 1.0 165 165
+ 6.687395 0 1 udp 932 ------- 0 0.0 1.0 166 166
r 6.688191 0 1 udp 54 ------- 0 0.0 1.0 165 165
- 6.688191 0 1 udp 932 ------- 0 0.0 1.0 166 166
+ 6.713503 0 1 udp 212 ------- 0 0.0 1.0 167 167
r 6.762751 0 1 udp 932 ------- 0 0.0 1.0 166 166
- 6.762751 0 1 udp 212 ------- 0 0.0 1.0 167 167
r 6.779711 0 1 udp 212 ------- 0 0.0 1.0 167 167
+ 6.80637 0 1 udp 481 ------- 0 0.0 1.0 168 168
- 6.80637 0 1 udp 481 ------- 0 0.0 1.0 168 168
+ 6.817877 0 1 udp 83 ------- 0 0.0 1.0 169 169
+ 6.835355 0 1 udp 75 ------- 0 0.0 1.0 170 170
r 6.84485 0 1 udp 481 ------- 0 0.0 1.0 168 168
- 6.84485 0 1 udp 83 ------- 0 0.0 1.0 169 169
r 6.85149 0 1 udp 83 ------- 0 0.0 1.0 169 169
- 6.85149 0 1 udp 75 ------- 0 0.0 1.0 170 170
+ 6.855891 0 1 udp 260 ------- 0 0.0 1.0 171 171
r 6.85749 0 1 udp 75 ------- 0 0.0 1.0 170 170
- 6.85749 0 1 udp 260 ------- 0 0.0 1.0 171 171
+ 6.868359 0 1 udp 235 ------- 0 0.0 1.0 172 172
r 6.87829 0 1 udp 260 ------- 0 0.0 1.0 171 171
- 6.87829 0 1 udp 235 ------- 0 0.0 1.0 172 172
+ 6.882388 0 1 udp 486 ------- 0 0.0 1.0 173 173
r 6.89709 0 1 udp 235 ------- 0 0.0 1.0 172 172
- 6.89709 0 1 udp 486 ------- 0 0.0 1.0 173 173
r 6.93597 0 1 udp 486 ------- 0 0.0 1.0 173 173
+ 6.945222 0 1 udp 492 ------- 0 0.0 1.0 174 174
- 6.945222 0 1 udp 492 ------- 0 0.0 1.0 174 174
r 6.984582 0 1 udp 492 ------- 0 0.0 1.0 174 174
+ 7.008605 0 1 udp 16 ------- 0 0.0 1.0 175 175
- 7.008605 0 1 udp 16 ------- 0 0.0 1.0 175 175
r 7.009885 0 1 udp 16 ------- 0 0.0 1.0 175 175
+ 7.077374 0 1 udp 74 ------- 0 0.0 1.0 176 176
- 7.077374 0 1 udp 74 ------- 0 0.0 1.0 176 176
r 7.083294 0 1 udp 74 ------- 0 0.0 1.0 176 176
+ 7.083344 0 1 udp 229 ------- 0 0.0 1.0 177 177
- 7.083344 0 1 udp 229 ------- 0 0.0 1.0 177 177
+ 7.095768 0 1 udp 290 ------- 0 0.0 1.0 178 178
r 7.101664 0 1 udp 229 ------- 0 0.0 1.0 177 177
- 7.101664 0 1 udp 290 ------- 0 0.0 1.0 178 178
r 7.124864 0 1 udp 290 ------- 0 0.0 1.0 178 178
+ 7.165909 0 1 udp 327 ------- 0 0.0 1.0 179 179
- 7.165909 0 1 udp 327 ------- 0 0.0 1.0 179 179
r 7.192069 0 1 udp 327 ------- 0 0.0 1.0 179 179
+ 7.21183 0 1 udp 1000 ------- 0 0.0 1.0 180 180
- 7.21183 0 1 udp 1000 ------- 0 0.0 1.0 180 180
+ 7.21183 0 1 udp 173 ------- 0 0.0 1.0 181 181
+ 7.256092 0 1 udp 375 ------- 0 0.0 1.0 182 182
+ 7.25752 0 1 udp 140 ------- 0 0.0 1.0 183 183
r 7.29183 0 1 udp 1000 ------- 0 0.0 1.0 180 180
- 7.29183 0 1 udp 173 ------- 0 0.0 1.0 181 181
r 7.30567 0 1 udp 173 ------- 0 0.0 1.0 181 181
- 7.30567 0 1 udp 375 ------- 0 0.0 1.0 182 182
+ 7.310822 0 1 udp 125 ------- 0 0.0 1.0 184 184
+ 7.328322 0 1 udp 845 ------- 0 0.0 1.0 185 185
r 7.33567 0 1 udp 375 ------- 0 0.0 1.0 182 182
- 7.33567 0 1 udp 140 ------- 0 0.0 1.0 183 183
r 7.34687 0 1 udp 140 ------- 0 0.0 1.0 183 183
- 7.34687 0 1 udp 125 ------- 0 0.0 1.0 184 184
r 7.35687 0 1 udp 125 ------- 0 0.0 1.0 184 184
- 7.35687 0 1 udp 845 ------- 0 0.0 1.0 185 185
+ 7.384014 0 1 udp 210 ------- 0 0.0 1.0 186 186
+ 7.419085 0 1 udp 1 ------- 0 0.0 1.0 187 187
r 7.42447 0 1 udp 845 ------- 0 0.0 1.0 185 185
- 7.42447 0 1 udp 210 ------- 0 0.0 1.0 186 186
r 7.44127 0 1 udp 210 ------- 0 0.0 1.0 186 186
- 7.44127 0 1 udp 1 ------- 0 0.0 1.0 187 187
r 7.44135 0 1 udp 1 ------- 0 0.0 1.0 187 187
+ 7.466683 0 1 udp 310 ------- 0 0.0 1.0 188 188
- 7.466683 0 1 udp 310 ------- 0 0.0 1.0 188 188
r 7.491483 0 1 udp 310 ------- 0 0.0 1.0 188 188
+ 7.493859 0 1 udp 77 ------- 0 0.0 1.0 189 189
- 7.493859 0 1 udp 77 ------- 0 0.0 1.0 189 189
r 7.500019 0 1 udp 77 ------- 0 0.0 1.0 189 189
+ 7.50367 0 1 udp 402 ------- 0 0.0 1.0 190 190
- 7.50367 0 1 udp 402 ------- 0 0.0 1.0 190 190
r 7.53583 0 1 udp 402 ------- 0 0.0 1.0 190 190
+ 7.542765 0 1 udp 1000 ------- 0 0.0 1.0 191 191
- 7.542765 0 1 udp 1000 ------- 0 0.0 1.0 191 191
+ 7.542765 0 1 udp 197 ------- 0 0.0 1.0 192 192
+ 7.54728 0 1 udp 68 ------- 0 0.0 1.0 193 193
+ 7.558451 0 1 udp 471 ------- 0 0.0 1.0 194 194
+ 7.580896 0 1 udp 469 ------- 0 0.0 1.0 195 195
+ 7.612037 0 1 udp 596 ------- 0 0.0 1.0 196 196
r 7.622765 0 1 udp 1000 ------- 0 0.0 1.0 191 191
- 7.622765 0 1 udp 197 ------- 0 0.0 1.0 192 192
r 7.638525 0 1 udp 197 ------- 0 0.0 1.0 192 192
- 7.638525 0 1 udp 68 ------- 0 0.0 1.0 193 193
+ 7.641214 0 1 udp 236 ------- 0 0.0 1.0 197 197
r 7.643965 0 1 udp 68 ------- 0 0.0 1.0 193 193
- 7.643965 0 1 udp 471 ------- 0 0.0 1.0 194 194
r 7.681645 0 1 udp 471 ------- 0 0.0 1.0 194 194
- 7.681645 0 1 udp 469 ------- 0 0.0 1.0 195 195
r 7.719165 0 1 udp 469 ------- 0 0.0 1.0 195 195
- 7.719165 0 1 udp 596 ------- 0 0.0 1.0 196 196
r 7.766845 0 1 udp 596 ------- 0 0.0 1.0 196 196
- 7.766845 0 1 udp 236 ------- 0 0.0 1.0 197 197
r 7.785725 0 1 udp 236 ------- 0 0.0 1.0 197 197
+ 7.793133 0 1 udp 5 ------- 0 0.0 1.0 198 198
- 7.793133 0 1 udp 5 ------- 0 0.0 1.0 198 198
r 7.793533 0 1 udp 5 ------- 0 0.0 1.0 198 198
+ 7.826497 0 1 udp 88 ------- 0 0.0 1.0 199 199
- 7.826497 0 1 udp 88 ------- 0 0.0 1.0 199 199
r 7.833537 0 1 udp 88 ------- 0 0.0 1.0 199 199
+ 7.843459 0 1 udp 350 ------- 0 0.0 1.0 200 200
- 7.843459 0 1 udp 350 ------- 0 0.0 1.0 200 200
r 7.871459 0 1 udp 350 ------- 0 0.0 1.0 200 200
+ 7.880592 0 1 udp 30 ------- 0 0.0 1.0 201 201
- 7.880592 0 1 udp 30 ------- 0 0.0 1.0 201 201
+ 7.880704 0 1 udp 461 ------- 0 0.0 1.0 202 202
r 7.882992 0 1 udp 30 ------- 0 0.0 1.0 201 201
- 7.882992 0 1 udp 461 ------- 0 0.0 1.0 202 202
+ 7.890986 0 1 udp 204 ------- 0 0.0 1.0 203 203
+ 7.89627 0 1 udp 656 ------- 0 0.0 1.0 204 204
r 7.919872 0 1 udp 461 ------- 0 0.0 1.0 202 202
- 7.919872 0 1 udp 204 ------- 0 0.0 1.0 203 203
+ 7.927137 0 1 udp 309 ------- 0 0.0 1.0 205 205
+ 7.927529 0 1 udp 224 ------- 0 0.0 1.0 206 206
+ 7.934654 0 1 udp 704 ------- 0 0.0 1.0 207 207
+ 7.93498 0 1 udp 489 ------- 0 0.0 1.0 208 208
r 7.936192 0 1 udp 204 ------- 0 0.0 1.0 203 203
- 7.936192 0 1 udp 656 ------- 0 0.0 1.0 204 204
+ 7.947819 0 1 udp 917 ------- 0 0.0 1.0 209 209
r 7.988672 0 1 udp 656 ------- 0 0.0 1.0 204 204
- 7.988672 0 1 udp 309 ------- 0 0.0 1.0 205 205
+ 8.00918 0 1 udp 1000 ------- 0 0.0 1.0 210 210
+ 8.00918 0 1 udp 297 ------- 0 0.0 1.0 211 211
+ 8.010094 0 1 udp 750 ------- 0 0.0 1.0 212 212
r 8.013392 0 1 udp 309 ------- 0 0.0 1.0 205 205
- 8.013392 0 1 udp 224 ------- 0 0.0 1.0 206 206
r 8.031312 0 1 udp 224 ------- 0 0.0 1.0 206 206
- 8.031312 0 1 udp 704 ------- 0 0.0 1.0 207 207
+ 8.040847 0 1 udp 639 ------- 0 0.0 1.0 213 213
+ 8.065266 0 1 udp 587 ------- 0 0.0 1.0 214 214