+ 0.0001 0 1 udp 379 ------- 0 0.0 1.0 0 0
- 0.0001 0 1 udp 379 ------- 0 0.0 1.0 0 0
r 0.03042 0 1 udp 379 ------- 0 0.0 1.0 0 0
+ 0.806949 0 1 udp 379 ------- 0 0.0 1.0 1 1
- 0.806949 0 1 udp 379 ------- 0 0.0 1.0 1 1
r 0.837269 0 1 udp 379 ------- 0 0.0 1.0 1 1
+ 0.866263 0 1 udp 379 ------- 0 0.0 1.0 2 2
- 0.866263 0 1 udp 379 ------- 0 0.0 1.0 2 2
r 0.896583 0 1 udp 379 ------- 0 0.0 1.0 2 2
+ 1.295978 0 1 udp 379 ------- 0 0.0 1.0 3 3
- 1.295978 0 1 udp 379 ------- 0 0.0 1.0 3 3
r 1.326298 0 1 udp 379 ------- 0 0.0 1.0 3 3
+ 1.541334 0 1 udp 379 ------- 0 0.0 1.0 4 4
- 1.541334 0 1 udp 379 ------- 0 0.0 1.0 4 4
r 1.571654 0 1 udp 379 ------- 0 0.0 1.0 4 4
+ 1.623993 0 1 udp 379 ------- 0 0.0 1.0 5 5
- 1.623993 0 1 udp 379 ------- 0 0.0 1.0 5 5
+ 1.646639 0 1 udp 379 ------- 0 0.0 1.0 6 6
r 1.654313 0 1 udp 379 ------- 0 0.0 1.0 5 5
- 1.654313 0 1 udp 379 ------- 0 0.0 1.0 6 6
r 1.684633 0 1 udp 379 ------- 0 0.0 1.0 6 6
+ 1.76398 0 1 udp 379 ------- 0 0.0 1.0 7 7
- 1.76398 0 1 udp 379 ------- 0 0.0 1.0 7 7
+ 1.784461 0 1 udp 379 ------- 0 0.0 1.0 8 8
r 1.7943 0 1 udp 379 ------- 0 0.0 1.0 7 7
- 1.7943 0 1 udp 379 ------- 0 0.0 1.0 8 8
r 1.82462 0 1 udp 379 ------- 0 0.0 1.0 8 8
+ 1.930912 0 1 udp 379 ------- 0 0.0 1.0 9 9
- 1.930912 0 1 udp 379 ------- 0 0.0 1.0 9 9
r 1.961232 0 1 udp 379 ------- 0 0.0 1.0 9 9
+ 1.976171 0 1 udp 379 ------- 0 0.0 1.0 10 10
- 1.976171 0 1 udp 379 ------- 0 0.0 1.0 10 10
r 2.006491 0 1 udp 379 ------- 0 0.0 1.0 10 10
+ 2.094772 0 1 udp 379 ------- 0 0.0 1.0 11 11
- 2.094772 0 1 udp 379 ------- 0 0.0 1.0 11 11
+ 2.112827 0 1 udp 379 ------- 0 0.0 1.0 12 12
r 2.125092 0 1 udp 379 ------- 0 0.0 1.0 11 11
- 2.125092 0 1 udp 379 ------- 0 0.0 1.0 12 12
r 2.155412 0 1 udp 379 ------- 0 0.0 1.0 12 12
+ 2.295352 0 1 udp 379 ------- 0 0.0 1.0 13 13
- 2.295352 0 1 udp 379 ------- 0 0.0 1.0 13 13
r 2.325672 0 1 udp 379 ------- 0 0.0 1.0 13 13
+ 2.61367 0 1 udp 379 ------- 0 0.0 1.0 14 14
- 2.61367 0 1 udp 379 ------- 0 0.0 1.0 14 14
r 2.64399 0 1 udp 379 ------- 0 0.0 1.0 14 14
+ 2.658739 0 1 udp 379 ------- 0 0.0 1.0 15 15
- 2.658739 0 1 udp 379 ------- 0 0.0 1.0 15 15
r 2.689059 0 1 udp 379 ------- 0 0.0 1.0 15 15
+ 2.878258 0 1 udp 379 ------- 0 0.0 1.0 16 16
- 2.878258 0 1 udp 379 ------- 0 0.0 1.0 16 16
+ 2.893525 0 1 udp 379 ------- 0 0.0 1.0 17 17
r 2.908578 0 1 udp 379 ------- 0 0.0 1.0 16 16
- 2.908578 0 1 udp 379 ------- 0 0.0 1.0 17 17
r 2.938898 0 1 udp 379 ------- 0 0.0 1.0 17 17
+ 2.980275 0 1 udp 379 ------- 0 0.0 1.0 18 18
- 2.980275 0 1 udp 379 ------- 0 0.0 1.0 18 18
r 3.010595 0 1 udp 379 ------- 0 0.0 1.0 18 18
+ 3.156445 0 1 udp 379 ------- 0 0.0 1.0 19 19
- 3.156445 0 1 udp 379 ------- 0 0.0 1.0 19 19
r 3.186765 0 1 udp 379 ------- 0 0.0 1.0 19 19
+ 3.395131 0 1 udp 379 ------- 0 0.0 1.0 20 20
- 3.395131 0 1 udp 379 ------- 0 0.0 1.0 20 20
+ 3.416787 0 1 udp 379 ------- 0 0.0 1.0 21 21
r 3.425451 0 1 udp 379 ------- 0 0.0 1.0 20 20
- 3.425451 0 1 udp 379 ------- 0 0.0 1.0 21 21
r 3.455771 0 1 udp 379 ------- 0 0.0 1.0 21 21
+ 3.523193 0 1 udp 379 ------- 0 0.0 1.0 22 22
- 3.523193 0 1 udp 379 ------- 0 0.0 1.0 22 22
r 3.553513 0 1 udp 379 ------- 0 0.0 1.0 22 22
+ 3.660007 0 1 udp 379 ------- 0 0.0 1.0 23 23
- 3.660007 0 1 udp 379 ------- 0 0.0 1.0 23 23
r 3.690327 0 1 udp 379 ------- 0 0.0 1.0 23 23
+ 3.750392 0 1 udp 379 ------- 0 0.0 1.0 24 24
- 3.750392 0 1 udp 379 ------- 0 0.0 1.0 24 24
r 3.780712 0 1 udp 379 ------- 0 0.0 1.0 24 24
+ 3.816708 0 1 udp 379 ------- 0 0.0 1.0 25 25
- 3.816708 0 1 udp 379 ------- 0 0.0 1.0 25 25
r 3.847028 0 1 udp 379 ------- 0 0.0 1.0 25 25
+ 3.893811 0 1 udp 379 ------- 0 0.0 1.0 26 26
- 3.893811 0 1 udp 379 ------- 0 0.0 1.0 26 26
r 3.924131 0 1 udp 379 ------- 0 0.0 1.0 26 26
+ 3.930955 0 1 udp 379 ------- 0 0.0 1.0 27 27
- 3.930955 0 1 udp 379 ------- 0 0.0 1.0 27 27
+ 3.945947 0 1 udp 379 ------- 0 0.0 1.0 28 28
r 3.961275 0 1 udp 379 ------- 0 0.0 1.0 27 27
- 3.961275 0 1 udp 379 ------- 0 0.0 1.0 28 28
+ 3.963579 0 1 udp 379 ------- 0 0.0 1.0 29 29
r 3.991595 0 1 udp 379 ------- 0 0.0 1.0 28 28
- 3.991595 0 1 udp 379 ------- 0 0.0 1.0 29 29
r 4.021915 0 1 udp 379 ------- 0 0.0 1.0 29 29
+ 4.117834 0 1 udp 379 ------- 0 0.0 1.0 30 30
- 4.117834 0 1 udp 379 ------- 0 0.0 1.0 30 30
r 4.148154 0 1 udp 379 ------- 0 0.0 1.0 30 30
+ 4.261473 0 1 udp 379 ------- 0 0.0 1.0 31 31
- 4.261473 0 1 udp 379 ------- 0 0.0 1.0 31 31
+ 4.277758 0 1 udp 379 ------- 0 0.0 1.0 32 32
r 4.291793 0 1 udp 379 ------- 0 0.0 1.0 31 31
- 4.291793 0 1 udp 379 ------- 0 0.0 1.0 32 32
+ 4.317108 0 1 udp 379 ------- 0 0.0 1.0 33 33
r 4.322113 0 1 udp 379 ------- 0 0.0 1.0 32 32
- 4.322113 0 1 udp 379 ------- 0 0.0 1.0 33 33
+ 4.344533 0 1 udp 379 ------- 0 0.0 1.0 34 34
r 4.352433 0 1 udp 379 ------- 0 0.0 1.0 33 33
- 4.352433 0 1 udp 379 ------- 0 0.0 1.0 34 34
+ 4.354622 0 1 udp 379 ------- 0 0.0 1.0 35 35
r 4.382753 0 1 udp 379 ------- 0 0.0 1.0 34 34
- 4.382753 0 1 udp 379 ------- 0 0.0 1.0 35 35
r 4.413073 0 1 udp 379 ------- 0 0.0 1.0 35 35
+ 4.445792 0 1 udp 379 ------- 0 0.0 1.0 36 36
- 4.445792 0 1 udp 379 ------- 0 0.0 1.0 36 36
r 4.476112 0 1 udp 379 ------- 0 0.0 1.0 36 36
+ 4.669488 0 1 udp 379 ------- 0 0.0 1.0 37 37
- 4.669488 0 1 udp 379 ------- 0 0.0 1.0 37 37
r 4.699808 0 1 udp 379 ------- 0 0.0 1.0 37 37
+ 4.760985 0 1 udp 379 ------- 0 0.0 1.0 38 38
- 4.760985 0 1 udp 379 ------- 0 0.0 1.0 38 38
r 4.791305 0 1 udp 379 ------- 0 0.0 1.0 38 38
+ 4.930147 0 1 udp 379 ------- 0 0.0 1.0 39 39
- 4.930147 0 1 udp 379 ------- 0 0.0 1.0 39 39
+ 4.942208 0 1 udp 379 ------- 0 0.0 1.0 40 40
+ 4.947787 0 1 udp 379 ------- 0 0.0 1.0 41 41
+ 4.959406 0 1 udp 379 ------- 0 0.0 1.0 42 42
r 4.960467 0 1 udp 379 ------- 0 0.0 1.0 39 39
- 4.960467 0 1 udp 379 ------- 0 0.0 1.0 40 40
r 4.990787 0 1 udp 379 ------- 0 0.0 1.0 40 40
- 4.990787 0 1 udp 379 ------- 0 0.0 1.0 41 41
r 5.021107 0 1 udp 379 ------- 0 0.0 1.0 41 41
- 5.021107 0 1 udp 379 ------- 0 0.0 1.0 42 42
r 5.051427 0 1 udp 379 ------- 0 0.0 1.0 42 42
+ 5.180514 0 1 udp 379 ------- 0 0.0 1.0 43 43
- 5.180514 0 1 udp 379 ------- 0 0.0 1.0 43 43
r 5.210834 0 1 udp 379 ------- 0 0.0 1.0 43 43
+ 5.467423 0 1 udp 379 ------- 0 0.0 1.0 44 44
- 5.467423 0 1 udp 379 ------- 0 0.0 1.0 44 44
r 5.497743 0 1 udp 379 ------- 0 0.0 1.0 44 44
+ 5.92474 0 1 udp 379 ------- 0 0.0 1.0 45 45
- 5.92474 0 1 udp 379 ------- 0 0.0 1.0 45 45
r 5.95506 0 1 udp 379 ------- 0 0.0 1.0 45 45
+ 5.977179 0 1 udp 379 ------- 0 0.0 1.0 46 46
- 5.977179 0 1 udp 379 ------- 0 0.0 1.0 46 46
r 6.007499 0 1 udp 379 ------- 0 0.0 1.0 46 46
+ 6.087447 0 1 udp 379 ------- 0 0.0 1.0 47 47
- 6.087447 0 1 udp 379 ------- 0 0.0 1.0 47 47
r 6.117767 0 1 udp 379 ------- 0 0.0 1.0 47 47
+ 6.299035 0 1 udp 379 ------- 0 0.0 1.0 48 48
- 6.299035 0 1 udp 379 ------- 0 0.0 1.0 48 48
r 6.329355 0 1 udp 379 ------- 0 0.0 1.0 48 48
+ 6.339695 0 1 udp 379 ------- 0 0.0 1.0 49 49
- 6.339695 0 1 udp 379 ------- 0 0.0 1.0 49 49
r 6.370015 0 1 udp 379 ------- 0 0.0 1.0 49 49
+ 6.476938 0 1 udp 379 ------- 0 0.0 1.0 50 50
- 6.476938 0 1 udp 379 ------- 0 0.0 1.0 50 50
r 6.507258 0 1 udp 379 ------- 0 0.0 1.0 50 50
+ 6.513158 0 1 udp 379 ------- 0 0.0 1.0 51 51
- 6.513158 0 1 udp 379 ------- 0 0.0 1.0 51 51
r 6.543478 0 1 udp 379 ------- 0 0.0 1.0 51 51
+ 6.574501 0 1 udp 379 ------- 0 0.0 1.0 52 52
- 6.574501 0 1 udp 379 ------- 0 0.0 1.0 52 52
+ 6.587798 0 1 udp 379 ------- 0 0.0 1.0 53 53
r 6.604821 0 1 udp 379 ------- 0 0.0 1.0 52 52
- 6.604821 0 1 udp 379 ------- 0 0.0 1.0 53 53
r 6.635141 0 1 udp 379 ------- 0 0.0 1.0 53 53
+ 6.723159 0 1 udp 379 ------- 0 0.0 1.0 54 54
- 6.723159 0 1 udp 379 ------- 0 0.0 1.0 54 54
r 6.753479 0 1 udp 379 ------- 0 0.0 1.0 54 54
+ 6.782662 0 1 udp 379 ------- 0 0.0 1.0 55 55
- 6.782662 0 1 udp 379 ------- 0 0.0 1.0 55 55
r 6.812982 0 1 udp 379 ------- 0 0.0 1.0 55 55
+ 6.86893 0 1 udp 379 ------- 0 0.0 1.0 56 56
- 6.86893 0 1 udp 379 ------- 0 0.0 1.0 56 56
r 6.89925 0 1 udp 379 ------- 0 0.0 1.0 56 56
+ 7.231706 0 1 udp 379 ------- 0 0.0 1.0 57 57
- 7.231706 0 1 udp 379 ------- 0 0.0 1.0 57 57
r 7.262026 0 1 udp 379 ------- 0 0.0 1.0 57 57
+ 7.344516 0 1 udp 379 ------- 0 0.0 1.0 58 58
- 7.344516 0 1 udp 379 ------- 0 0.0 1.0 58 58
r 7.374836 0 1 udp 379 ------- 0 0.0 1.0 58 58
+ 7.5143 0 1 udp 379 ------- 0 0.0 1.0 59 59
- 7.5143 0 1 udp 379 ------- 0 0.0 1.0 59 59
+ 7.538753 0 1 udp 379 ------- 0 0.0 1.0 60 60
+ 7.544274 0 1 udp 379 ------- 0 0.0 1.0 61 61
r 7.54462 0 1 udp 379 ------- 0 0.0 1.0 59 59
- 7.54462 0 1 udp 379 ------- 0 0.0 1.0 60 60
+ 7.570321 0 1 udp 379 ------- 0 0.0 1.0 62 62
r 7.57494 0 1 udp 379 ------- 0 0.0 1.0 60 60
- 7.57494 0 1 udp 379 ------- 0 0.0 1.0 61 61
r 7.60526 0 1 udp 379 ------- 0 0.0 1.0 61 61
- 7.60526 0 1 udp 379 ------- 0 0.0 1.0 62 62
r 7.63558 0 1 udp 379 ------- 0 0.0 1.0 62 62
+ 7.729546 0 1 udp 379 ------- 0 0.0 1.0 63 63
- 7.729546 0 1 udp 379 ------- 0 0.0 1.0 63 63
r 7.759866 0 1 udp 379 ------- 0 0.0 1.0 63 63
+ 7.766307 0 1 udp 379 ------- 0 0.0 1.0 64 64
- 7.766307 0 1 udp 379 ------- 0 0.0 1.0 64 64
r 7.796627 0 1 udp 379 ------- 0 0.0 1.0 64 64
+ 7.940235 0 1 udp 379 ------- 0 0.0 1.0 65 65
- 7.940235 0 1 udp 379 ------- 0 0.0 1.0 65 65
+ 7.942688 0 1 udp 379 ------- 0 0.0 1.0 66 66
r 7.970555 0 1 udp 379 ------- 0 0.0 1.0 65 65
- 7.970555 0 1 udp 379 ------- 0 0.0 1.0 66 66
r 8.000875 0 1 udp 379 ------- 0 0.0 1.0 66 66
+ 8.184403 0 1 udp 379 ------- 0 0.0 1.0 67 67
- 8.184403 0 1 udp 379 ------- 0 0.0 1.0 67 67
r 8.214723 0 1 udp 379 ------- 0 0.0 1.0 67 67
+ 8.256105 0 1 udp 379 ------- 0 0.0 1.0 68 68
- 8.256105 0 1 udp 379 ------- 0 0.0 1.0 68 68
r 8.286425 0 1 udp 379 ------- 0 0.0 1.0 68 68
+ 8.558435 0 1 udp 379 ------- 0 0.0 1.0 69 69
- 8.558435 0 1 udp 379 ------- 0 0.0 1.0 69 69
+ 8.573071 0 1 udp 379 ------- 0 0.0 1.0 70 70
r 8.588755 0 1 udp 379 ------- 0 0.0 1.0 69 69
- 8.588755 0 1 udp 379 ------- 0 0.0 1.0 70 70
r 8.619075 0 1 udp 379 ------- 0 0.0 1.0 70 70
+ 8.63665 0 1 udp 379 ------- 0 0.0 1.0 71 71
- 8.63665 0 1 udp 379 ------- 0 0.0 1.0 71 71
r 8.66697 0 1 udp 379 ------- 0 0.0 1.0 71 71
+ 8.667737 0 1 udp 379 ------- 0 0.0 1.0 72 72
- 8.667737 0 1 udp 379 ------- 0 0.0 1.0 72 72
r 8.698057 0 1 udp 379 ------- 0 0.0 1.0 72 72
+ 8.75507 0 1 udp 379 ------- 0 0.0 1.0 73 73
- 8.75507 0 1 udp 379 ------- 0 0.0 1.0 73 73
r 8.78539 0 1 udp 379 ------- 0 0.0 1.0 73 73
+ 9.000337 0 1 udp 379 ------- 0 0.0 1.0 74 74
- 9.000337 0 1 udp 379 ------- 0 0.0 1.0 74 74
+ 9.021075 0 1 udp 379 ------- 0 0.0 1.0 75 75
r 9.030657 0 1 udp 379 ------- 0 0.0 1.0 74 74
- 9.030657 0 1 udp 379 ------- 0 0.0 1.0 75 75
+ 9.031398 0 1 udp 379 ------- 0 0.0 1.0 76 76
r 9.060977 0 1 udp 379 ------- 0 0.0 1.0 75 75
- 9.060977 0 1 udp 379 ------- 0 0.0 1.0 76 76
+ 9.063459 0 1 udp 379 ------- 0 0.0 1.0 77 77
+ 9.076987 0 1 udp 379 ------- 0 0.0 1.0 78 78
r 9.091297 0 1 udp 379 ------- 0 0.0 1.0 76 76
- 9.091297 0 1 udp 379 ------- 0 0.0 1.0 77 77
r 9.121617 0 1 udp 379 ------- 0 0.0 1.0 77 77
- 9.121617 0 1 udp 379 ------- 0 0.0 1.0 78 78
+ 9.130951 0 1 udp 379 ------- 0 0.0 1.0 79 79
r 9.151937 0 1 udp 379 ------- 0 0.0 1.0 78 78
- 9.151937 0 1 udp 379 ------- 0 0.0 1.0 79 79
+ 9.161936 0 1 udp 379 ------- 0 0.0 1.0 80 80
r 9.182257 0 1 udp 379 ------- 0 0.0 1.0 79 79
- 9.182257 0 1 udp 379 ------- 0 0.0 1.0 80 80
+ 9.184222 0 1 udp 379 ------- 0 0.0 1.0 81 81
r 9.212577 0 1 udp 379 ------- 0 0.0 1.0 80 80
- 9.212577 0 1 udp 379 ------- 0 0.0 1.0 81 81
r 9.242897 0 1 udp 379 ------- 0 0.0 1.0 81 81
+ 9.288531 0 1 udp 379 ------- 0 0.0 1.0 82 82
- 9.288531 0 1 udp 379 ------- 0 0.0 1.0 82 82
r 9.318851 0 1 udp 379 ------- 0 0.0 1.0 82 82
+ 9.347386 0 1 udp 379 ------- 0 0.0 1.0 83 83
- 9.347386 0 1 udp 379 ------- 0 0.0 1.0 83 83
+ 9.367977 0 1 udp 379 ------- 0 0.0 1.0 84 84
r 9.377706 0 1 udp 379 ------- 0 0.0 1.0 83 83
- 9.377706 0 1 udp 379 ------- 0 0.0 1.0 84 84
+ 9.392586 0 1 udp 379 ------- 0 0.0 1.0 85 85
r 9.408026 0 1 udp 379 ------- 0 0.0 1.0 84 84
- 9.408026 0 1 udp 379 ------- 0 0.0 1.0 85 85
+ 9.434019 0 1 udp 379 ------- 0 0.0 1.0 86 86
r 9.438346 0 1 udp 379 ------- 0 0.0 1.0 85 85
- 9.438346 0 1 udp 379 ------- 0 0.0 1.0 86 86
r 9.468666 0 1 udp 379 ------- 0 0.0 1.0 86 86
+ 9.625655 0 1 udp 379 ------- 0 0.0 1.0 87 87
- 9.625655 0 1 udp 379 ------- 0 0.0 1.0 87 87
r 9.655975 0 1 udp 379 ------- 0 0.0 1.0 87 87
+ 9.716612 0 1 udp 379 ------- 0 0.0 1.0 88 88
- 9.716612 0 1 udp 379 ------- 0 0.0 1.0 88 88
r 9.746932 0 1 udp 379 ------- 0 0.0 1.0 88 88
+ 9.777714 0 1 udp 379 ------- 0 0.0 1.0 89 89
- 9.777714 0 1 udp 379 ------- 0 0.0 1.0 89 89
r 9.808034 0 1 udp 379 ------- 0 0.0 1.0 89 89
+ 9.877165 0 1 udp 379 ------- 0 0.0 1.0 90 90
- 9.877165 0 1 udp 379 ------- 0 0.0 1.0 90 90
r 9.907485 0 1 udp 379 ------- 0 0.0 1.0 90 90
+ 10.751242 0 1 udp 379 ------- 0 0.0 1.0 91 91
- 10.751242 0 1 udp 379 ------- 0 0.0 1.0 91 91
r 10.781562 0 1 udp 379 ------- 0 0.0 1.0 91 91
+ 11.002126 0 1 udp 379 ------- 0 0.0 1.0 92 92
- 11.002126 0 1 udp 379 ------- 0 0.0 1.0 92 92
r 11.032446 0 1 udp 379 ------- 0 0.0 1.0 92 92
+ 11.113436 0 1 udp 379 ------- 0 0.0 1.0 93 93
- 11.113436 0 1 udp 379 ------- 0 0.0 1.0 93 93
r 11.143756 0 1 udp 379 ------- 0 0.0 1.0 93 93
+ 11.150088 0 1 udp 379 ------- 0 0.0 1.0 94 94
- 11.150088 0 1 udp 379 ------- 0 0.0 1.0 94 94
+ 11.159399 0 1 udp 379 ------- 0 0.0 1.0 95 95
r 11.180408 0 1 udp 379 ------- 0 0.0 1.0 94 94
- 11.180408 0 1 udp 379 ------- 0 0.0 1.0 95 95
r 11.210728 0 1 udp 379 ------- 0 0.0 1.0 95 95
+ 11.504607 0 1 udp 379 ------- 0 0.0 1.0 96 96
- 11.504607 0 1 udp 379 ------- 0 0.0 1.0 96 96
r 11.534927 0 1 udp 379 ------- 0 0.0 1.0 96 96
+ 11.606343 0 1 udp 379 ------- 0 0.0 1.0 97 97
- 11.606343 0 1 udp 379 ------- 0 0.0 1.0 97 97
r 11.636663 0 1 udp 379 ------- 0 0.0 1.0 97 97
+ 11.72629 0 1 udp 379 ------- 0 0.0 1.0 98 98
- 11.72629 0 1 udp 379 ------- 0 0.0 1.0 98 98
r 11.75661 0 1 udp 379 ------- 0 0.0 1.0 98 98
+ 12.301918 0 1 udp 379 ------- 0 0.0 1.0 99 99
- 12.301918 0 1 udp 379 ------- 0 0.0 1.0 99 99
r 12.332238 0 1 udp 379 ------- 0 0.0 1.0 99 99
+ 12.416466 0 1 udp 379 ------- 0 0.0 1.0 100 100
- 12.416466 0 1 udp 379 ------- 0 0.0 1.0 100 100
+ 12.429234 0 1 udp 379 ------- 0 0.0 1.0 101 101
+ 12.442147 0 1 udp 379 ------- 0 0.0 1.0 102 102
r 12.446786 0 1 udp 379 ------- 0 0.0 1.0 100 100
- 12.446786 0 1 udp 379 ------- 0 0.0 1.0 101 101
+ 12.463953 0 1 udp 379 ------- 0 0.0 1.0 103 103
r 12.477106 0 1 udp 379 ------- 0 0.0 1.0 101 101
- 12.477106 0 1 udp 379 ------- 0 0.0 1.0 102 102
r 12.507426 0 1 udp 379 ------- 0 0.0 1.0 102 102
- 12.507426 0 1 udp 379 ------- 0 0.0 1.0 103 103
r 12.537746 0 1 udp 379 ------- 0 0.0 1.0 103 103
+ 12.642217 0 1 udp 379 ------- 0 0.0 1.0 104 104
- 12.642217 0 1 udp 379 ------- 0 0.0 1.0 104 104
r 12.672537 0 1 udp 379 ------- 0 0.0 1.0 104 104
+ 12.990081 0 1 udp 379 ------- 0 0.0 1.0 105 105
- 12.990081 0 1 udp 379 ------- 0 0.0 1.0 105 105
+ 13.018437 0 1 udp 379 ------- 0 0.0 1.0 106 106
r 13.020401 0 1 udp 379 ------- 0 0.0 1.0 105 105
- 13.020401 0 1 udp 379 ------- 0 0.0 1.0 106 106
r 13.050721 0 1 udp 379 ------- 0 0.0 1.0 106 106
+ 13.067483 0 1 udp 379 ------- 0 0.0 1.0 107 107
- 13.067483 0 1 udp 379 ------- 0 0.0 1.0 107 107
+ 13.091341 0 1 udp 379 ------- 0 0.0 1.0 108 108
r 13.097803 0 1 udp 379 ------- 0 0.0 1.0 107 107
- 13.097803 0 1 udp 379 ------- 0 0.0 1.0 108 108
r 13.128123 0 1 udp 379 ------- 0 0.0 1.0 108 108
+ 13.157249 0 1 udp 379 ------- 0 0.0 1.0 109 109
- 13.157249 0 1 udp 379 ------- 0 0.0 1.0 109 109
r 13.187569 0 1 udp 379 ------- 0 0.0 1.0 109 109
+ 13.237623 0 1 udp 379 ------- 0 0.0 1.0 110 110
- 13.237623 0 1 udp 379 ------- 0 0.0 1.0 110 110
r 13.267943 0 1 udp 379 ------- 0 0.0 1.0 110 110
+ 13.396418 0 1 udp 379 ------- 0 0.0 1.0 111 111
- 13.396418 0 1 udp 379 ------- 0 0.0 1.0 111 111
r 13.426738 0 1 udp 379 ------- 0 0.0 1.0 111 111
+ 13.81413 0 1 udp 379 ------- 0 0.0 1.0 112 112
- 13.81413 0 1 udp 379 ------- 0 0.0 1.0 112 112
r 13.84445 0 1 udp 379 ------- 0 0.0 1.0 112 112
+ 13.897077 0 1 udp 379 ------- 0 0.0 1.0 113 113
- 13.897077 0 1 udp 379 ------- 0 0.0 1.0 113 113
r 13.927397 0 1 udp 379 ------- 0 0.0 1.0 113 113
+ 13.980644 0 1 udp 379 ------- 0 0.0 1.0 114 114
- 13.980644 0 1 udp 379 ------- 0 0.0 1.0 114 114
r 14.010964 0 1 udp 379 ------- 0 0.0 1.0 114 114
+ 14.09226 0 1 udp 379 ------- 0 0.0 1.0 115 115
- 14.09226 0 1 udp 379 ------- 0 0.0 1.0 115 115
r 14.12258 0 1 udp 379 ------- 0 0.0 1.0 115 115
+ 14.307123 0 1 udp 379 ------- 0 0.0 1.0 116 116
- 14.307123 0 1 udp 379 ------- 0 0.0 1.0 116 116
+ 14.317831 0 1 udp 379 ------- 0 0.0 1.0 117 117
r 14.337443 0 1 udp 379 ------- 0 0.0 1.0 116 116
- 14.337443 0 1 udp 379 ------- 0 0.0 1.0 117 117
r 14.367763 0 1 udp 379 ------- 0 0.0 1.0 117 117
+ 14.473494 0 1 udp 379 ------- 0 0.0 1.0 118 118
- 14.473494 0 1 udp 379 ------- 0 0.0 1.0 118 118
r 14.503814 0 1 udp 379 ------- 0 0.0 1.0 118 118
+ 14.558649 0 1 udp 379 ------- 0 0.0 1.0 119 119
- 14.558649 0 1 udp 379 ------- 0 0.0 1.0 119 119
r 14.588969 0 1 udp 379 ------- 0 0.0 1.0 119 119
+ 14.645572 0 1 udp 379 ------- 0 0.0 1.0 120 120
- 14.645572 0 1 udp 379 ------- 0 0.0 1.0 120 120
r 14.675892 0 1 udp 379 ------- 0 0.0 1.0 120 120
+ 14.736256 0 1 udp 379 ------- 0 0.0 1.0 121 121
- 14.736256 0 1 udp 379 ------- 0 0.0 1.0 121 121
r 14.766576 0 1 udp 379 ------- 0 0.0 1.0 121 121
+ 14.767265 0 1 udp 379 ------- 0 0.0 1.0 122 122
- 14.767265 0 1 udp 379 ------- 0 0.0 1.0 122 122
r 14.797585 0 1 udp 379 ------- 0 0.0 1.0 122 122
+ 14.840404 0 1 udp 379 ------- 0 0.0 1.0 123 123
- 14.840404 0 1 udp 379 ------- 0 0.0 1.0 123 123
+ 14.851406 0 1 udp 379 ------- 0 0.0 1.0 124 124
r 14.870724 0 1 udp 379 ------- 0 0.0 1.0 123 123
- 14.870724 0 1 udp 379 ------- 0 0.0 1.0 124 124
+ 14.899223 0 1 udp 379 ------- 0 0.0 1.0 125 125
r 14.901044 0 1 udp 379 ------- 0 0.0 1.0 124 124
- 14.901044 0 1 udp 379 ------- 0 0.0 1.0 125 125
+ 14.915546 0 1 udp 379 ------- 0 0.0 1.0 126 126
r 14.931364 0 1 udp 379 ------- 0 0.0 1.0 125 125
- 14.931364 0 1 udp 379 ------- 0 0.0 1.0 126 126
r 14.961684 0 1 udp 379 ------- 0 0.0 1.0 126 126
+ 15.101598 0 1 udp 379 ------- 0 0.0 1.0 127 127
- 15.101598 0 1 udp 379 ------- 0 0.0 1.0 127 127
r 15.131918 0 1 udp 379 ------- 0 0.0 1.0 127 127
+ 15.247646 0 1 udp 379 ------- 0 0.0 1.0 128 128
- 15.247646 0 1 udp 379 ------- 0 0.0 1.0 128 128
r 15.277966 0 1 udp 379 ------- 0 0.0 1.0 128 128
+ 15.524541 0 1 udp 379 ------- 0 0.0 1.0 129 129
- 15.524541 0 1 udp 379 ------- 0 0.0 1.0 129 129
r 15.554861 0 1 udp 379 ------- 0 0.0 1.0 129 129
+ 15.69963 0 1 udp 379 ------- 0 0.0 1.0 130 130
- 15.69963 0 1 udp 379 ------- 0 0.0 1.0 130 130
+ 15.713541 0 1 udp 379 ------- 0 0.0 1.0 131 131
r 15.72995 0 1 udp 379 ------- 0 0.0 1.0 130 130
- 15.72995 0 1 udp 379 ------- 0 0.0 1.0 131 131
r 15.76027 0 1 udp 379 ------- 0 0.0 1.0 131 131
+ 16.039942 0 1 udp 379 ------- 0 0.0 1.0 132 132
- 16.039942 0 1 udp 379 ------- 0 0.0 1.0 132 132
r 16.070262 0 1 udp 379 ------- 0 0.0 1.0 132 132
+ 16.095226 0 1 udp 379 ------- 0 0.0 1.0 133 133
- 16.095226 0 1 udp 379 ------- 0 0.0 1.0 133 133
r 16.125546 0 1 udp 379 ------- 0 0.0 1.0 133 133
+ 16.130362 0 1 udp 379 ------- 0 0.0 1.0 134 134
- 16.130362 0 1 udp 379 ------- 0 0.0 1.0 134 134
r 16.160682 0 1 udp 379 ------- 0 0.0 1.0 134 134
+ 16.280215 0 1 udp 379 ------- 0 0.0 1.0 135 135
- 16.280215 0 1 udp 379 ------- 0 0.0 1.0 135 135
+ 16.299007 0 1 udp 379 ------- 0 0.0 1.0 136 136
r 16.310535 0 1 udp 379 ------- 0 0.0 1.0 135 135
- 16.310535 0 1 udp 379 ------- 0 0.0 1.0 136 136
r 16.340855 0 1 udp 379 ------- 0 0.0 1.0 136 136
+ 16.585406 0 1 udp 379 ------- 0 0.0 1.0 137 137
- 16.585406 0 1 udp 379 ------- 0 0.0 1.0 137 137
r 16.615726 0 1 udp 379 ------- 0 0.0 1.0 137 137
+ 16.694389 0 1 udp 379 ------- 0 0.0 1.0 138 138
- 16.694389 0 1 udp 379 ------- 0 0.0 1.0 138 138
+ 16.717684 0 1 udp 379 ------- 0 0.0 1.0 139 139
r 16.724709 0 1 udp 379 ------- 0 0.0 1.0 138 138
- 16.724709 0 1 udp 379 ------- 0 0.0 1.0 139 139
r 16.755029 0 1 udp 379 ------- 0 0.0 1.0 139 139
+ 16.763225 0 1 udp 379 ------- 0 0.0 1.0 140 140
- 16.763225 0 1 udp 379 ------- 0 0.0 1.0 140 140
r 16.793545 0 1 udp 379 ------- 0 0.0 1.0 140 140
+ 16.847677 0 1 udp 379 ------- 0 0.0 1.0 141 141
- 16.847677 0 1 udp 379 ------- 0 0.0 1.0 141 141
r 16.877997 0 1 udp 379 ------- 0 0.0 1.0 141 141
+ 16.996579 0 1 udp 379 ------- 0 0.0 1.0 142 142
- 16.996579 0 1 udp 379 ------- 0 0.0 1.0 142 142
r 17.026899 0 1 udp 379 ------- 0 0.0 1.0 142 142
+ 17.079085 0 1 udp 379 ------- 0 0.0 1.0 143 143
- 17.079085 0 1 udp 379 ------- 0 0.0 1.0 143 143
+ 17.085343 0 1 udp 379 ------- 0 0.0 1.0 144 144
r 17.109405 0 1 udp 379 ------- 0 0.0 1.0 143 143
- 17.109405 0 1 udp 379 ------- 0 0.0 1.0 144 144
r 17.139725 0 1 udp 379 ------- 0 0.0 1.0 144 144
+ 17.163786 0 1 udp 379 ------- 0 0.0 1.0 145 145
- 17.163786 0 1 udp 379 ------- 0 0.0 1.0 145 145
+ 17.174268 0 1 udp 379 ------- 0 0.0 1.0 146 146
+ 17.178631 0 1 udp 379 ------- 0 0.0 1.0 147 147
+ 17.188635 0 1 udp 379 ------- 0 0.0 1.0 148 148
r 17.194106 0 1 udp 379 ------- 0 0.0 1.0 145 145
- 17.194106 0 1 udp 379 ------- 0 0.0 1.0 146 146
r 17.224426 0 1 udp 379 ------- 0 0.0 1.0 146 146
- 17.224426 0 1 udp 379 ------- 0 0.0 1.0 147 147
r 17.254746 0 1 udp 379 ------- 0 0.0 1.0 147 147
- 17.254746 0 1 udp 379 ------- 0 0.0 1.0 148 148
r 17.285066 0 1 udp 379 ------- 0 0.0 1.0 148 148
+ 17.379063 0 1 udp 379 ------- 0 0.0 1.0 149 149
- 17.379063 0 1 udp 379 ------- 0 0.0 1.0 149 149
+ 17.384774 0 1 udp 379 ------- 0 0.0 1.0 150 150
r 17.409383 0 1 udp 379 ------- 0 0.0 1.0 149 149
- 17.409383 0 1 udp 379 ------- 0 0.0 1.0 150 150
r 17.439703 0 1 udp 379 ------- 0 0.0 1.0 150 150
+ 17.446972 0 1 udp 379 ------- 0 0.0 1.0 151 151
- 17.446972 0 1 udp 379 ------- 0 0.0 1.0 151 151
r 17.477292 0 1 udp 379 ------- 0 0.0 1.0 151 151
+ 17.510086 0 1 udp 379 ------- 0 0.0 1.0 152 152
- 17.510086 0 1 udp 379 ------- 0 0.0 1.0 152 152
r 17.540406 0 1 udp 379 ------- 0 0.0 1.0 152 152
+ 17.783902 0 1 udp 379 ------- 0 0.0 1.0 153 153
- 17.783902 0 1 udp 379 ------- 0 0.0 1.0 153 153
+ 17.786788 0 1 udp 379 ------- 0 0.0 1.0 154 154
r 17.814222 0 1 udp 379 ------- 0 0.0 1.0 153 153
- 17.814222 0 1 udp 379 ------- 0 0.0 1.0 154 154
r 17.844542 0 1 udp 379 ------- 0 0.0 1.0 154 154
+ 17.853225 0 1 udp 379 ------- 0 0.0 1.0 155 155
- 17.853225 0 1 udp 379 ------- 0 0.0 1.0 155 155
+ 17.866025 0 1 udp 379 ------- 0 0.0 1.0 156 156
r 17.883545 0 1 udp 379 ------- 0 0.0 1.0 155 155
- 17.883545 0 1 udp 379 ------- 0 0.0 1.0 156 156
+ 17.897843 0 1 udp 379 ------- 0 0.0 1.0 157 157
r 17.913865 0 1 udp 379 ------- 0 0.0 1.0 156 156
- 17.913865 0 1 udp 379 ------- 0 0.0 1.0 157 157
r 17.944185 0 1 udp 379 ------- 0 0.0 1.0 157 157
+ 18.032806 0 1 udp 379 ------- 0 0.0 1.0 158 158
- 18.032806 0 1 udp 379 ------- 0 0.0 1.0 158 158
r 18.063126 0 1 udp 379 ------- 0 0.0 1.0 158 158
+ 18.107046 0 1 udp 379 ------- 0 0.0 1.0 159 159
- 18.107046 0 1 udp 379 ------- 0 0.0 1.0 159 159
+ 18.136146 0 1 udp 379 ------- 0 0.0 1.0 160 160
r 18.137366 0 1 udp 379 ------- 0 0.0 1.0 159 159
- 18.137366 0 1 udp 379 ------- 0 0.0 1.0 160 160
r 18.167686 0 1 udp 379 ------- 0 0.0 1.0 160 160
+ 18.295788 0 1 udp 379 ------- 0 0.0 1.0 161 161
- 18.295788 0 1 udp 379 ------- 0 0.0 1.0 161 161
r 18.326108 0 1 udp 379 ------- 0 0.0 1.0 161 161
+ 18.335432 0 1 udp 379 ------- 0 0.0 1.0 162 162
- 18.335432 0 1 udp 379 ------- 0 0.0 1.0 162 162
r 18.365752 0 1 udp 379 ------- 0 0.0 1.0 162 162
+ 18.377825 0 1 udp 379 ------- 0 0.0 1.0 163 163
- 18.377825 0 1 udp 379 ------- 0 0.0 1.0 163 163
r 18.408145 0 1 udp 379 ------- 0 0.0 1.0 163 163
+ 18.561769 0 1 udp 379 ------- 0 0.0 1.0 164 164
- 18.561769 0 1 udp 379 ------- 0 0.0 1.0 164 164
r 18.592089 0 1 udp 379 ------- 0 0.0 1.0 164 164
+ 18.696009 0 1 udp 379 ------- 0 0.0 1.0 165 165
- 18.696009 0 1 udp 379 ------- 0 0.0 1.0 165 165
r 18.726329 0 1 udp 379 ------- 0 0.0 1.0 165 165
+ 18.794107 0 1 udp 379 ------- 0 0.0 1.0 166 166
- 18.794107 0 1 udp 379 ------- 0 0.0 1.0 166 166
r 18.824427 0 1 udp 379 ------- 0 0.0 1.0 166 166
+ 18.843751 0 1 udp 379 ------- 0 0.0 1.0 167 167
- 18.843751 0 1 udp 379 ------- 0 0.0 1.0 167 167
r 18.874071 0 1 udp 379 ------- 0 0.0 1.0 167 167
+ 18.886422 0 1 udp 379 ------- 0 0.0 1.0 168 168
- 18.886422 0 1 udp 379 ------- 0 0.0 1.0 168 168
+ 18.902298 0 1 udp 379 ------- 0 0.0 1.0 169 169
r 18.916742 0 1 udp 379 ------- 0 0.0 1.0 168 168
- 18.916742 0 1 udp 379 ------- 0 0.0 1.0 169 169
r 18.947062 0 1 udp 379 ------- 0 0.0 1.0 169 169
+ 19.030726 0 1 udp 379 ------- 0 0.0 1.0 170 170
- 19.030726 0 1 udp 379 ------- 0 0.0 1.0 170 170
r 19.061046 0 1 udp 379 ------- 0 0.0 1.0 170 170
+ 19.211843 0 1 udp 379 ------- 0 0.0 1.0 171 171
- 19.211843 0 1 udp 379 ------- 0 0.0 1.0 171 171
r 19.242163 0 1 udp 379 ------- 0 0.0 1.0 171 171
+ 19.378062 0 1 udp 379 ------- 0 0.0 1.0 172 172
- 19.378062 0 1 udp 379 ------- 0 0.0 1.0 172 172
r 19.408382 0 1 udp 379 ------- 0 0.0 1.0 172 172
+ 19.699305 0 1 udp 379 ------- 0 0.0 1.0 173 173
- 19.699305 0 1 udp 379 ------- 0 0.0 1.0 173 173
r 19.729625 0 1 udp 379 ------- 0 0.0 1.0 173 173
+ 19.95777 0 1 udp 379 ------- 0 0.0 1.0 174 174
- 19.95777 0 1 udp 379 ------- 0 0.0 1.0 174 174
r 19.98809 0 1 udp 379 ------- 0 0.0 1.0 174 174
+ 20.172431 0 1 udp 379 ------- 0 0.0 1.0 175 175
- 20.172431 0 1 udp 379 ------- 0 0.0 1.0 175 175
r 20.202751 0 1 udp 379 ------- 0 0.0 1.0 175 175
+ 20.467413 0 1 udp 379 ------- 0 0.0 1.0 176 176
- 20.467413 0 1 udp 379 ------- 0 0.0 1.0 176 176
r 20.497733 0 1 udp 379 ------- 0 0.0 1.0 176 176
+ 20.570853 0 1 udp 379 ------- 0 0.0 1.0 177 177
- 20.570853 0 1 udp 379 ------- 0 0.0 1.0 177 177
r 20.601173 0 1 udp 379 ------- 0 0.0 1.0 177 177
+ 20.72643 0 1 udp 379 ------- 0 0.0 1.0 178 178
- 20.72643 0 1 udp 379 ------- 0 0.0 1.0 178 178
r 20.75675 0 1 udp 379 ------- 0 0.0 1.0 178 178
+ 21.018767 0 1 udp 379 ------- 0 0.0 1.0 179 179
- 21.018767 0 1 udp 379 ------- 0 0.0 1.0 179 179
+ 21.02354 0 1 udp 379 ------- 0 0.0 1.0 180 180
+ 21.043313 0 1 udp 379 ------- 0 0.0 1.0 181 181
r 21.049087 0 1 udp 379 ------- 0 0.0 1.0 179 179
- 21.049087 0 1 udp 379 ------- 0 0.0 1.0 180 180
+ 21.078143 0 1 udp 379 ------- 0 0.0 1.0 182 182
r 21.079407 0 1 udp 379 ------- 0 0.0 1.0 180 180
- 21.079407 0 1 udp 379 ------- 0 0.0 1.0 181 181
r 21.109727 0 1 udp 379 ------- 0 0.0 1.0 181 181
- 21.109727 0 1 udp 379 ------- 0 0.0 1.0 182 182
r 21.140047 0 1 udp 379 ------- 0 0.0 1.0 182 182
+ 21.163308 0 1 udp 379 ------- 0 0.0 1.0 183 183
- 21.163308 0 1 udp 379 ------- 0 0.0 1.0 183 183
+ 21.182123 0 1 udp 379 ------- 0 0.0 1.0 184 184
r 21.193628 0 1 udp 379 ------- 0 0.0 1.0 183 183
- 21.193628 0 1 udp 379 ------- 0 0.0 1.0 184 184
r 21.223948 0 1 udp 379 ------- 0 0.0 1.0 184 184
+ 21.276507 0 1 udp 379 ------- 0 0.0 1.0 185 185
- 21.276507 0 1 udp 379 ------- 0 0.0 1.0 185 185
r 21.306827 0 1 udp 379 ------- 0 0.0 1.0 185 185
+ 21.338101 0 1 udp 379 ------- 0 0.0 1.0 186 186
- 21.338101 0 1 udp 379 ------- 0 0.0 1.0 186 186
r 21.368421 0 1 udp 379 ------- 0 0.0 1.0 186 186
+ 21.544307 0 1 udp 379 ------- 0 0.0 1.0 187 187
- 21.544307 0 1 udp 379 ------- 0 0.0 1.0 187 187
r 21.574627 0 1 udp 379 ------- 0 0.0 1.0 187 187
+ 21.599289 0 1 udp 379 ------- 0 0.0 1.0 188 188
- 21.599289 0 1 udp 379 ------- 0 0.0 1.0 188 188
r 21.629609 0 1 udp 379 ------- 0 0.0 1.0 188 188
+ 21.687633 0 1 udp 379 ------- 0 0.0 1.0 189 189
- 21.687633 0 1 udp 379 ------- 0 0.0 1.0 189 189
+ 21.706835 0 1 udp 379 ------- 0 0.0 1.0 190 190
r 21.717953 0 1 udp 379 ------- 0 0.0 1.0 189 189
- 21.717953 0 1 udp 379 ------- 0 0.0 1.0 190 190
+ 21.728633 0 1 udp 379 ------- 0 0.0 1.0 191 191
+ 21.744177 0 1 udp 379 ------- 0 0.0 1.0 192 192
r 21.748273 0 1 udp 379 ------- 0 0.0 1.0 190 190
- 21.748273 0 1 udp 379 ------- 0 0.0 1.0 191 191
r 21.778593 0 1 udp 379 ------- 0 0.0 1.0 191 191
- 21.778593 0 1 udp 379 ------- 0 0.0 1.0 192 192
r 21.808913 0 1 udp 379 ------- 0 0.0 1.0 192 192
+ 22.314578 0 1 udp 379 ------- 0 0.0 1.0 193 193
- 22.314578 0 1 udp 379 ------- 0 0.0 1.0 193 193
+ 22.337925 0 1 udp 379 ------- 0 0.0 1.0 194 194
r 22.344898 0 1 udp 379 ------- 0 0.0 1.0 193 193
- 22.344898 0 1 udp 379 ------- 0 0.0 1.0 194 194
r 22.375218 0 1 udp 379 ------- 0 0.0 1.0 194 194
+ 22.598135 0 1 udp 379 ------- 0 0.0 1.0 195 195
- 22.598135 0 1 udp 379 ------- 0 0.0 1.0 195 195
r 22.628455 0 1 udp 379 ------- 0 0.0 1.0 195 195
+ 22.755109 0 1 udp 379 ------- 0 0.0 1.0 196 196
- 22.755109 0 1 udp 379 ------- 0 0.0 1.0 196 196
+ 22.772926 0 1 udp 379 ------- 0 0.0 1.0 197 197
r 22.785429 0 1 udp 379 ------- 0 0.0 1.0 196 196
- 22.785429 0 1 udp 379 ------- 0 0.0 1.0 197 197
r 22.815749 0 1 udp 379 ------- 0 0.0 1.0 197 197
+ 22.847645 0 1 udp 379 ------- 0 0.0 1.0 198 198
- 22.847645 0 1 udp 379 ------- 0 0.0 1.0 198 198
r 22.877965 0 1 udp 379 ------- 0 0.0 1.0 198 198
+ 23.033299 0 1 udp 379 ------- 0 0.0 1.0 199 199
- 23.033299 0 1 udp 379 ------- 0 0.0 1.0 199 199
r 23.063619 0 1 udp 379 ------- 0 0.0 1.0 199 199
+ 23.165647 0 1 udp 379 ------- 0 0.0 1.0 200 200
- 23.165647 0 1 udp 379 ------- 0 0.0 1.0 200 200
r 23.195967 0 1 udp 379 ------- 0 0.0 1.0 200 200
+ 23.561133 0 1 udp 379 ------- 0 0.0 1.0 201 201
- 23.561133 0 1 udp 379 ------- 0 0.0 1.0 201 201
r 23.591453 0 1 udp 379 ------- 0 0.0 1.0 201 201
+ 23.596562 0 1 udp 379 ------- 0 0.0 1.0 202 202
- 23.596562 0 1 udp 379 ------- 0 0.0 1.0 202 202
r 23.626882 0 1 udp 379 ------- 0 0.0 1.0 202 202
+ 23.68137 0 1 udp 379 ------- 0 0.0 1.0 203 203
- 23.68137 0 1 udp 379 ------- 0 0.0 1.0 203 203
r 23.71169 0 1 udp 379 ------- 0 0.0 1.0 203 203
+ 23.753954 0 1 udp 379 ------- 0 0.0 1.0 204 204
- 23.753954 0 1 udp 379 ------- 0 0.0 1.0 204 204
r 23.784274 0 1 udp 379 ------- 0 0.0 1.0 204 204
+ 23.872926 0 1 udp 379 ------- 0 0.0 1.0 205 205
- 23.872926 0 1 udp 379 ------- 0 0.0 1.0 205 205
r 23.903246 0 1 udp 379 ------- 0 0.0 1.0 205 205
+ 24.361463 0 1 udp 379 ------- 0 0.0 1.0 206 206