+ 0.0001 0 1 udp 379 ------- 0 0.0 1.0 0 0
- 0.0001 0 1 udp 379 ------- 0 0.0 1.0 0 0
r 0.03042 0 1 udp 379 ------- 0 0.0 1.0 0 0
+ 0.26905 0 1 udp 379 ------- 0 0.0 1.0 1 1
- 0.26905 0 1 udp 379 ------- 0 0.0 1.0 1 1
+ 0.288821 0 1 udp 379 ------- 0 0.0 1.0 2 2
r 0.29937 0 1 udp 379 ------- 0 0.0 1.0 1 1
- 0.29937 0 1 udp 379 ------- 0 0.0 1.0 2 2
r 0.32969 0 1 udp 379 ------- 0 0.0 1.0 2 2
+ 0.43206 0 1 udp 379 ------- 0 0.0 1.0 3 3
- 0.43206 0 1 udp 379 ------- 0 0.0 1.0 3 3
r 0.46238 0 1 udp 379 ------- 0 0.0 1.0 3 3
+ 0.513845 0 1 udp 379 ------- 0 0.0 1.0 4 4
- 0.513845 0 1 udp 379 ------- 0 0.0 1.0 4 4
+ 0.541398 0 1 udp 379 ------- 0 0.0 1.0 5 5
r 0.544165 0 1 udp 379 ------- 0 0.0 1.0 4 4
- 0.544165 0 1 udp 379 ------- 0 0.0 1.0 5 5
+ 0.548946 0 1 udp 379 ------- 0 0.0 1.0 6 6
r 0.574485 0 1 udp 379 ------- 0 0.0 1.0 5 5
- 0.574485 0 1 udp 379 ------- 0 0.0 1.0 6 6
+ 0.58806 0 1 udp 379 ------- 0 0.0 1.0 7 7
+ 0.594887 0 1 udp 379 ------- 0 0.0 1.0 8 8
r 0.604805 0 1 udp 379 ------- 0 0.0 1.0 6 6
- 0.604805 0 1 udp 379 ------- 0 0.0 1.0 7 7
r 0.635125 0 1 udp 379 ------- 0 0.0 1.0 7 7
- 0.635125 0 1 udp 379 ------- 0 0.0 1.0 8 8
+ 0.643704 0 1 udp 379 ------- 0 0.0 1.0 9 9
+ 0.65879 0 1 udp 379 ------- 0 0.0 1.0 10 10
r 0.665445 0 1 udp 379 ------- 0 0.0 1.0 8 8
- 0.665445 0 1 udp 379 ------- 0 0.0 1.0 9 9
r 0.695765 0 1 udp 379 ------- 0 0.0 1.0 9 9
- 0.695765 0 1 udp 379 ------- 0 0.0 1.0 10 10
+ 0.698324 0 1 udp 379 ------- 0 0.0 1.0 11 11
+ 0.704342 0 1 udp 379 ------- 0 0.0 1.0 12 12
r 0.726085 0 1 udp 379 ------- 0 0.0 1.0 10 10
- 0.726085 0 1 udp 379 ------- 0 0.0 1.0 11 11
r 0.756405 0 1 udp 379 ------- 0 0.0 1.0 11 11
- 0.756405 0 1 udp 379 ------- 0 0.0 1.0 12 12
+ 0.765184 0 1 udp 379 ------- 0 0.0 1.0 13 13
r 0.786725 0 1 udp 379 ------- 0 0.0 1.0 12 12
- 0.786725 0 1 udp 379 ------- 0 0.0 1.0 13 13
r 0.817045 0 1 udp 379 ------- 0 0.0 1.0 13 13
+ 0.87129 0 1 udp 379 ------- 0 0.0 1.0 14 14
- 0.87129 0 1 udp 379 ------- 0 0.0 1.0 14 14
+ 0.886313 0 1 udp 379 ------- 0 0.0 1.0 15 15
r 0.90161 0 1 udp 379 ------- 0 0.0 1.0 14 14
- 0.90161 0 1 udp 379 ------- 0 0.0 1.0 15 15
r 0.93193 0 1 udp 379 ------- 0 0.0 1.0 15 15
+ 0.959486 0 1 udp 379 ------- 0 0.0 1.0 16 16
- 0.959486 0 1 udp 379 ------- 0 0.0 1.0 16 16
+ 0.964575 0 1 udp 379 ------- 0 0.0 1.0 17 17
r 0.989806 0 1 udp 379 ------- 0 0.0 1.0 16 16
- 0.989806 0 1 udp 379 ------- 0 0.0 1.0 17 17
+ 0.993492 0 1 udp 379 ------- 0 0.0 1.0 18 18
r 1.020126 0 1 udp 379 ------- 0 0.0 1.0 17 17
- 1.020126 0 1 udp 379 ------- 0 0.0 1.0 18 18
r 1.050446 0 1 udp 379 ------- 0 0.0 1.0 18 18
+ 1.052215 0 1 udp 379 ------- 0 0.0 1.0 19 19
- 1.052215 0 1 udp 379 ------- 0 0.0 1.0 19 19
r 1.082535 0 1 udp 379 ------- 0 0.0 1.0 19 19
+ 1.131777 0 1 udp 379 ------- 0 0.0 1.0 20 20
- 1.131777 0 1 udp 379 ------- 0 0.0 1.0 20 20
+ 1.138996 0 1 udp 379 ------- 0 0.0 1.0 21 21
r 1.162097 0 1 udp 379 ------- 0 0.0 1.0 20 20
- 1.162097 0 1 udp 379 ------- 0 0.0 1.0 21 21
+ 1.174465 0 1 udp 379 ------- 0 0.0 1.0 22 22
r 1.192417 0 1 udp 379 ------- 0 0.0 1.0 21 21
- 1.192417 0 1 udp 379 ------- 0 0.0 1.0 22 22
+ 1.220069 0 1 udp 379 ------- 0 0.0 1.0 23 23
r 1.222737 0 1 udp 379 ------- 0 0.0 1.0 22 22
- 1.222737 0 1 udp 379 ------- 0 0.0 1.0 23 23
+ 1.250197 0 1 udp 379 ------- 0 0.0 1.0 24 24
r 1.253057 0 1 udp 379 ------- 0 0.0 1.0 23 23
- 1.253057 0 1 udp 379 ------- 0 0.0 1.0 24 24
+ 1.272303 0 1 udp 379 ------- 0 0.0 1.0 25 25
r 1.283377 0 1 udp 379 ------- 0 0.0 1.0 24 24
- 1.283377 0 1 udp 379 ------- 0 0.0 1.0 25 25
+ 1.298004 0 1 udp 379 ------- 0 0.0 1.0 26 26
+ 1.310385 0 1 udp 379 ------- 0 0.0 1.0 27 27
r 1.313697 0 1 udp 379 ------- 0 0.0 1.0 25 25
- 1.313697 0 1 udp 379 ------- 0 0.0 1.0 26 26
+ 1.315382 0 1 udp 379 ------- 0 0.0 1.0 28 28
+ 1.32126 0 1 udp 379 ------- 0 0.0 1.0 29 29
r 1.344017 0 1 udp 379 ------- 0 0.0 1.0 26 26
- 1.344017 0 1 udp 379 ------- 0 0.0 1.0 27 27
+ 1.372678 0 1 udp 379 ------- 0 0.0 1.0 30 30
r 1.374337 0 1 udp 379 ------- 0 0.0 1.0 27 27
- 1.374337 0 1 udp 379 ------- 0 0.0 1.0 28 28
r 1.404657 0 1 udp 379 ------- 0 0.0 1.0 28 28
- 1.404657 0 1 udp 379 ------- 0 0.0 1.0 29 29
+ 1.420558 0 1 udp 379 ------- 0 0.0 1.0 31 31
+ 1.425986 0 1 udp 379 ------- 0 0.0 1.0 32 32
r 1.434977 0 1 udp 379 ------- 0 0.0 1.0 29 29
- 1.434977 0 1 udp 379 ------- 0 0.0 1.0 30 30
+ 1.439103 0 1 udp 379 ------- 0 0.0 1.0 33 33
+ 1.448244 0 1 udp 379 ------- 0 0.0 1.0 34 34
+ 1.451607 0 1 udp 379 ------- 0 0.0 1.0 35 35
r 1.465297 0 1 udp 379 ------- 0 0.0 1.0 30 30
- 1.465297 0 1 udp 379 ------- 0 0.0 1.0 31 31
+ 1.481997 0 1 udp 379 ------- 0 0.0 1.0 36 36
r 1.495617 0 1 udp 379 ------- 0 0.0 1.0 31 31
- 1.495617 0 1 udp 379 ------- 0 0.0 1.0 32 32
r 1.525937 0 1 udp 379 ------- 0 0.0 1.0 32 32
- 1.525937 0 1 udp 379 ------- 0 0.0 1.0 33 33
r 1.556257 0 1 udp 379 ------- 0 0.0 1.0 33 33
- 1.556257 0 1 udp 379 ------- 0 0.0 1.0 34 34
+ 1.556563 0 1 udp 379 ------- 0 0.0 1.0 37 37
r 1.586577 0 1 udp 379 ------- 0 0.0 1.0 34 34
- 1.586577 0 1 udp 379 ------- 0 0.0 1.0 35 35
+ 1.587062 0 1 udp 379 ------- 0 0.0 1.0 38 38
r 1.616897 0 1 udp 379 ------- 0 0.0 1.0 35 35
- 1.616897 0 1 udp 379 ------- 0 0.0 1.0 36 36
+ 1.643449 0 1 udp 379 ------- 0 0.0 1.0 39 39
r 1.647217 0 1 udp 379 ------- 0 0.0 1.0 36 36
- 1.647217 0 1 udp 379 ------- 0 0.0 1.0 37 37
+ 1.64747 0 1 udp 379 ------- 0 0.0 1.0 40 40
+ 1.649329 0 1 udp 379 ------- 0 0.0 1.0 41 41
+ 1.653202 0 1 udp 379 ------- 0 0.0 1.0 42 42
r 1.677537 0 1 udp 379 ------- 0 0.0 1.0 37 37
- 1.677537 0 1 udp 379 ------- 0 0.0 1.0 38 38
r 1.707857 0 1 udp 379 ------- 0 0.0 1.0 38 38
- 1.707857 0 1 udp 379 ------- 0 0.0 1.0 39 39
+ 1.726905 0 1 udp 379 ------- 0 0.0 1.0 43 43
r 1.738177 0 1 udp 379 ------- 0 0.0 1.0 39 39
- 1.738177 0 1 udp 379 ------- 0 0.0 1.0 40 40
r 1.768497 0 1 udp 379 ------- 0 0.0 1.0 40 40
- 1.768497 0 1 udp 379 ------- 0 0.0 1.0 41 41
r 1.798817 0 1 udp 379 ------- 0 0.0 1.0 41 41
- 1.798817 0 1 udp 379 ------- 0 0.0 1.0 42 42
+ 1.822541 0 1 udp 379 ------- 0 0.0 1.0 44 44
r 1.829137 0 1 udp 379 ------- 0 0.0 1.0 42 42
- 1.829137 0 1 udp 379 ------- 0 0.0 1.0 43 43
r 1.859457 0 1 udp 379 ------- 0 0.0 1.0 43 43
- 1.859457 0 1 udp 379 ------- 0 0.0 1.0 44 44
r 1.889777 0 1 udp 379 ------- 0 0.0 1.0 44 44
+ 1.97498 0 1 udp 379 ------- 0 0.0 1.0 45 45
- 1.97498 0 1 udp 379 ------- 0 0.0 1.0 45 45
+ 1.99246 0 1 udp 379 ------- 0 0.0 1.0 46 46
r 2.0053 0 1 udp 379 ------- 0 0.0 1.0 45 45
- 2.0053 0 1 udp 379 ------- 0 0.0 1.0 46 46
+ 2.029216 0 1 udp 379 ------- 0 0.0 1.0 47 47
r 2.03562 0 1 udp 379 ------- 0 0.0 1.0 46 46
- 2.03562 0 1 udp 379 ------- 0 0.0 1.0 47 47
r 2.06594 0 1 udp 379 ------- 0 0.0 1.0 47 47
+ 2.099745 0 1 udp 379 ------- 0 0.0 1.0 48 48
- 2.099745 0 1 udp 379 ------- 0 0.0 1.0 48 48
+ 2.113299 0 1 udp 379 ------- 0 0.0 1.0 49 49
r 2.130065 0 1 udp 379 ------- 0 0.0 1.0 48 48
- 2.130065 0 1 udp 379 ------- 0 0.0 1.0 49 49
+ 2.159046 0 1 udp 379 ------- 0 0.0 1.0 50 50
r 2.160385 0 1 udp 379 ------- 0 0.0 1.0 49 49
- 2.160385 0 1 udp 379 ------- 0 0.0 1.0 50 50
+ 2.171119 0 1 udp 379 ------- 0 0.0 1.0 51 51
r 2.190705 0 1 udp 379 ------- 0 0.0 1.0 50 50
- 2.190705 0 1 udp 379 ------- 0 0.0 1.0 51 51
+ 2.191567 0 1 udp 379 ------- 0 0.0 1.0 52 52
+ 2.195999 0 1 udp 379 ------- 0 0.0 1.0 53 53
r 2.221025 0 1 udp 379 ------- 0 0.0 1.0 51 51
- 2.221025 0 1 udp 379 ------- 0 0.0 1.0 52 52
+ 2.24112 0 1 udp 379 ------- 0 0.0 1.0 54 54
r 2.251345 0 1 udp 379 ------- 0 0.0 1.0 52 52
- 2.251345 0 1 udp 379 ------- 0 0.0 1.0 53 53
+ 2.260954 0 1 udp 379 ------- 0 0.0 1.0 55 55
r 2.281665 0 1 udp 379 ------- 0 0.0 1.0 53 53
- 2.281665 0 1 udp 379 ------- 0 0.0 1.0 54 54
+ 2.28971 0 1 udp 379 ------- 0 0.0 1.0 56 56
r 2.311985 0 1 udp 379 ------- 0 0.0 1.0 54 54
- 2.311985 0 1 udp 379 ------- 0 0.0 1.0 55 55
r 2.342305 0 1 udp 379 ------- 0 0.0 1.0 55 55
- 2.342305 0 1 udp 379 ------- 0 0.0 1.0 56 56
r 2.372625 0 1 udp 379 ------- 0 0.0 1.0 56 56
+ 2.410635 0 1 udp 379 ------- 0 0.0 1.0 57 57
- 2.410635 0 1 udp 379 ------- 0 0.0 1.0 57 57
r 2.440955 0 1 udp 379 ------- 0 0.0 1.0 57 57
+ 2.448239 0 1 udp 379 ------- 0 0.0 1.0 58 58
- 2.448239 0 1 udp 379 ------- 0 0.0 1.0 58 58
r 2.478559 0 1 udp 379 ------- 0 0.0 1.0 58 58
+ 2.504833 0 1 udp 379 ------- 0 0.0 1.0 59 59
- 2.504833 0 1 udp 379 ------- 0 0.0 1.0 59 59
+ 2.512985 0 1 udp 379 ------- 0 0.0 1.0 60 60
+ 2.514825 0 1 udp 379 ------- 0 0.0 1.0 61 61
+ 2.523507 0 1 udp 379 ------- 0 0.0 1.0 62 62
r 2.535153 0 1 udp 379 ------- 0 0.0 1.0 59 59
- 2.535153 0 1 udp 379 ------- 0 0.0 1.0 60 60
r 2.565473 0 1 udp 379 ------- 0 0.0 1.0 60 60
- 2.565473 0 1 udp 379 ------- 0 0.0 1.0 61 61
+ 2.576582 0 1 udp 379 ------- 0 0.0 1.0 63 63
+ 2.588836 0 1 udp 379 ------- 0 0.0 1.0 64 64
r 2.595793 0 1 udp 379 ------- 0 0.0 1.0 61 61
- 2.595793 0 1 udp 379 ------- 0 0.0 1.0 62 62
r 2.626113 0 1 udp 379 ------- 0 0.0 1.0 62 62
- 2.626113 0 1 udp 379 ------- 0 0.0 1.0 63 63
+ 2.646812 0 1 udp 379 ------- 0 0.0 1.0 65 65
+ 2.647629 0 1 udp 379 ------- 0 0.0 1.0 66 66
r 2.656433 0 1 udp 379 ------- 0 0.0 1.0 63 63
- 2.656433 0 1 udp 379 ------- 0 0.0 1.0 64 64
r 2.686753 0 1 udp 379 ------- 0 0.0 1.0 64 64
- 2.686753 0 1 udp 379 ------- 0 0.0 1.0 65 65
r 2.717073 0 1 udp 379 ------- 0 0.0 1.0 65 65
- 2.717073 0 1 udp 379 ------- 0 0.0 1.0 66 66
+ 2.728201 0 1 udp 379 ------- 0 0.0 1.0 67 67
r 2.747393 0 1 udp 379 ------- 0 0.0 1.0 66 66
- 2.747393 0 1 udp 379 ------- 0 0.0 1.0 67 67
+ 2.752102 0 1 udp 379 ------- 0 0.0 1.0 68 68
r 2.777713 0 1 udp 379 ------- 0 0.0 1.0 67 67
- 2.777713 0 1 udp 379 ------- 0 0.0 1.0 68 68
r 2.808033 0 1 udp 379 ------- 0 0.0 1.0 68 68
+ 2.852878 0 1 udp 379 ------- 0 0.0 1.0 69 69
- 2.852878 0 1 udp 379 ------- 0 0.0 1.0 69 69
+ 2.857757 0 1 udp 379 ------- 0 0.0 1.0 70 70
+ 2.87895 0 1 udp 379 ------- 0 0.0 1.0 71 71
r 2.883198 0 1 udp 379 ------- 0 0.0 1.0 69 69
- 2.883198 0 1 udp 379 ------- 0 0.0 1.0 70 70
+ 2.889312 0 1 udp 379 ------- 0 0.0 1.0 72 72
r 2.913518 0 1 udp 379 ------- 0 0.0 1.0 70 70
- 2.913518 0 1 udp 379 ------- 0 0.0 1.0 71 71
+ 2.918423 0 1 udp 379 ------- 0 0.0 1.0 73 73
r 2.943838 0 1 udp 379 ------- 0 0.0 1.0 71 71
- 2.943838 0 1 udp 379 ------- 0 0.0 1.0 72 72
r 2.974158 0 1 udp 379 ------- 0 0.0 1.0 72 72
- 2.974158 0 1 udp 379 ------- 0 0.0 1.0 73 73
+ 3.000179 0 1 udp 379 ------- 0 0.0 1.0 74 74
r 3.004478 0 1 udp 379 ------- 0 0.0 1.0 73 73
- 3.004478 0 1 udp 379 ------- 0 0.0 1.0 74 74
+ 3.007092 0 1 udp 379 ------- 0 0.0 1.0 75 75
+ 3.010533 0 1 udp 379 ------- 0 0.0 1.0 76 76
+ 3.02122 0 1 udp 379 ------- 0 0.0 1.0 77 77
+ 3.025729 0 1 udp 379 ------- 0 0.0 1.0 78 78
r 3.034798 0 1 udp 379 ------- 0 0.0 1.0 74 74
- 3.034798 0 1 udp 379 ------- 0 0.0 1.0 75 75
+ 3.043717 0 1 udp 379 ------- 0 0.0 1.0 79 79
+ 3.054045 0 1 udp 379 ------- 0 0.0 1.0 80 80
+ 3.061474 0 1 udp 379 ------- 0 0.0 1.0 81 81
r 3.065118 0 1 udp 379 ------- 0 0.0 1.0 75 75
- 3.065118 0 1 udp 379 ------- 0 0.0 1.0 76 76
r 3.095438 0 1 udp 379 ------- 0 0.0 1.0 76 76
- 3.095438 0 1 udp 379 ------- 0 0.0 1.0 77 77
+ 3.096244 0 1 udp 379 ------- 0 0.0 1.0 82 82
+ 3.115862 0 1 udp 379 ------- 0 0.0 1.0 83 83
+ 3.122726 0 1 udp 379 ------- 0 0.0 1.0 84 84
r 3.125758 0 1 udp 379 ------- 0 0.0 1.0 77 77
- 3.125758 0 1 udp 379 ------- 0 0.0 1.0 78 78
+ 3.130929 0 1 udp 379 ------- 0 0.0 1.0 85 85
+ 3.14474 0 1 udp 379 ------- 0 0.0 1.0 86 86
r 3.156078 0 1 udp 379 ------- 0 0.0 1.0 78 78
- 3.156078 0 1 udp 379 ------- 0 0.0 1.0 79 79
r 3.186398 0 1 udp 379 ------- 0 0.0 1.0 79 79
- 3.186398 0 1 udp 379 ------- 0 0.0 1.0 80 80
+ 3.208619 0 1 udp 379 ------- 0 0.0 1.0 87 87
r 3.216718 0 1 udp 379 ------- 0 0.0 1.0 80 80
- 3.216718 0 1 udp 379 ------- 0 0.0 1.0 81 81
+ 3.238938 0 1 udp 379 ------- 0 0.0 1.0 88 88
r 3.247038 0 1 udp 379 ------- 0 0.0 1.0 81 81
- 3.247038 0 1 udp 379 ------- 0 0.0 1.0 82 82
+ 3.259305 0 1 udp 379 ------- 0 0.0 1.0 89 89
r 3.277358 0 1 udp 379 ------- 0 0.0 1.0 82 82
- 3.277358 0 1 udp 379 ------- 0 0.0 1.0 83 83
+ 3.292455 0 1 udp 379 ------- 0 0.0 1.0 90 90
r 3.307678 0 1 udp 379 ------- 0 0.0 1.0 83 83
- 3.307678 0 1 udp 379 ------- 0 0.0 1.0 84 84
r 3.337998 0 1 udp 379 ------- 0 0.0 1.0 84 84
- 3.337998 0 1 udp 379 ------- 0 0.0 1.0 85 85
r 3.368318 0 1 udp 379 ------- 0 0.0 1.0 85 85
- 3.368318 0 1 udp 379 ------- 0 0.0 1.0 86 86
r 3.398638 0 1 udp 379 ------- 0 0.0 1.0 86 86
- 3.398638 0 1 udp 379 ------- 0 0.0 1.0 87 87
r 3.428958 0 1 udp 379 ------- 0 0.0 1.0 87 87
- 3.428958 0 1 udp 379 ------- 0 0.0 1.0 88 88
r 3.459278 0 1 udp 379 ------- 0 0.0 1.0 88 88
- 3.459278 0 1 udp 379 ------- 0 0.0 1.0 89 89
r 3.489598 0 1 udp 379 ------- 0 0.0 1.0 89 89
- 3.489598 0 1 udp 379 ------- 0 0.0 1.0 90 90
r 3.519918 0 1 udp 379 ------- 0 0.0 1.0 90 90
+ 3.583814 0 1 udp 379 ------- 0 0.0 1.0 91 91
- 3.583814 0 1 udp 379 ------- 0 0.0 1.0 91 91
r 3.614134 0 1 udp 379 ------- 0 0.0 1.0 91 91
+ 3.667442 0 1 udp 379 ------- 0 0.0 1.0 92 92
- 3.667442 0 1 udp 379 ------- 0 0.0 1.0 92 92
r 3.697762 0 1 udp 379 ------- 0 0.0 1.0 92 92
+ 3.704545 0 1 udp 379 ------- 0 0.0 1.0 93 93
- 3.704545 0 1 udp 379 ------- 0 0.0 1.0 93 93
+ 3.716763 0 1 udp 379 ------- 0 0.0 1.0 94 94
+ 3.719866 0 1 udp 379 ------- 0 0.0 1.0 95 95
r 3.734865 0 1 udp 379 ------- 0 0.0 1.0 93 93
- 3.734865 0 1 udp 379 ------- 0 0.0 1.0 94 94
r 3.765185 0 1 udp 379 ------- 0 0.0 1.0 94 94
- 3.765185 0 1 udp 379 ------- 0 0.0 1.0 95 95
r 3.795505 0 1 udp 379 ------- 0 0.0 1.0 95 95
+ 3.834936 0 1 udp 379 ------- 0 0.0 1.0 96 96
- 3.834936 0 1 udp 379 ------- 0 0.0 1.0 96 96
r 3.865256 0 1 udp 379 ------- 0 0.0 1.0 96 96
+ 3.868848 0 1 udp 379 ------- 0 0.0 1.0 97 97
- 3.868848 0 1 udp 379 ------- 0 0.0 1.0 97 97
r 3.899168 0 1 udp 379 ------- 0 0.0 1.0 97 97
+ 3.90883 0 1 udp 379 ------- 0 0.0 1.0 98 98
- 3.90883 0 1 udp 379 ------- 0 0.0 1.0 98 98
r 3.93915 0 1 udp 379 ------- 0 0.0 1.0 98 98
+ 4.100706 0 1 udp 379 ------- 0 0.0 1.0 99 99
- 4.100706 0 1 udp 379 ------- 0 0.0 1.0 99 99
r 4.131026 0 1 udp 379 ------- 0 0.0 1.0 99 99
+ 4.138889 0 1 udp 379 ------- 0 0.0 1.0 100 100
- 4.138889 0 1 udp 379 ------- 0 0.0 1.0 100 100
+ 4.143145 0 1 udp 379 ------- 0 0.0 1.0 101 101
+ 4.147449 0 1 udp 379 ------- 0 0.0 1.0 102 102
+ 4.154718 0 1 udp 379 ------- 0 0.0 1.0 103 103
r 4.169209 0 1 udp 379 ------- 0 0.0 1.0 100 100
- 4.169209 0 1 udp 379 ------- 0 0.0 1.0 101 101
r 4.199529 0 1 udp 379 ------- 0 0.0 1.0 101 101
- 4.199529 0 1 udp 379 ------- 0 0.0 1.0 102 102
+ 4.214139 0 1 udp 379 ------- 0 0.0 1.0 104 104
r 4.229849 0 1 udp 379 ------- 0 0.0 1.0 102 102
- 4.229849 0 1 udp 379 ------- 0 0.0 1.0 103 103
r 4.260169 0 1 udp 379 ------- 0 0.0 1.0 103 103
- 4.260169 0 1 udp 379 ------- 0 0.0 1.0 104 104
r 4.290489 0 1 udp 379 ------- 0 0.0 1.0 104 104
+ 4.330094 0 1 udp 379 ------- 0 0.0 1.0 105 105
- 4.330094 0 1 udp 379 ------- 0 0.0 1.0 105 105
+ 4.339546 0 1 udp 379 ------- 0 0.0 1.0 106 106
+ 4.355894 0 1 udp 379 ------- 0 0.0 1.0 107 107
r 4.360414 0 1 udp 379 ------- 0 0.0 1.0 105 105
- 4.360414 0 1 udp 379 ------- 0 0.0 1.0 106 106
+ 4.363847 0 1 udp 379 ------- 0 0.0 1.0 108 108
+ 4.385816 0 1 udp 379 ------- 0 0.0 1.0 109 109
r 4.390734 0 1 udp 379 ------- 0 0.0 1.0 106 106
- 4.390734 0 1 udp 379 ------- 0 0.0 1.0 107 107
+ 4.412608 0 1 udp 379 ------- 0 0.0 1.0 110 110
r 4.421054 0 1 udp 379 ------- 0 0.0 1.0 107 107
- 4.421054 0 1 udp 379 ------- 0 0.0 1.0 108 108
r 4.451374 0 1 udp 379 ------- 0 0.0 1.0 108 108
- 4.451374 0 1 udp 379 ------- 0 0.0 1.0 109 109
+ 4.46554 0 1 udp 379 ------- 0 0.0 1.0 111 111
r 4.481694 0 1 udp 379 ------- 0 0.0 1.0 109 109
- 4.481694 0 1 udp 379 ------- 0 0.0 1.0 110 110
r 4.512014 0 1 udp 379 ------- 0 0.0 1.0 110 110
- 4.512014 0 1 udp 379 ------- 0 0.0 1.0 111 111
r 4.542334 0 1 udp 379 ------- 0 0.0 1.0 111 111
+ 4.604777 0 1 udp 379 ------- 0 0.0 1.0 112 112
- 4.604777 0 1 udp 379 ------- 0 0.0 1.0 112 112
+ 4.632426 0 1 udp 379 ------- 0 0.0 1.0 113 113
r 4.635097 0 1 udp 379 ------- 0 0.0 1.0 112 112
- 4.635097 0 1 udp 379 ------- 0 0.0 1.0 113 113
+ 4.660281 0 1 udp 379 ------- 0 0.0 1.0 114 114
r 4.665417 0 1 udp 379 ------- 0 0.0 1.0 113 113
- 4.665417 0 1 udp 379 ------- 0 0.0 1.0 114 114
r 4.695737 0 1 udp 379 ------- 0 0.0 1.0 114 114
+ 4.697487 0 1 udp 379 ------- 0 0.0 1.0 115 115
- 4.697487 0 1 udp 379 ------- 0 0.0 1.0 115 115
r 4.727807 0 1 udp 379 ------- 0 0.0 1.0 115 115
+ 4.769108 0 1 udp 379 ------- 0 0.0 1.0 116 116
- 4.769108 0 1 udp 379 ------- 0 0.0 1.0 116 116
+ 4.772677 0 1 udp 379 ------- 0 0.0 1.0 117 117
r 4.799428 0 1 udp 379 ------- 0 0.0 1.0 116 116
- 4.799428 0 1 udp 379 ------- 0 0.0 1.0 117 117
+ 4.824565 0 1 udp 379 ------- 0 0.0 1.0 118 118
r 4.829748 0 1 udp 379 ------- 0 0.0 1.0 117 117
- 4.829748 0 1 udp 379 ------- 0 0.0 1.0 118 118
+ 4.85295 0 1 udp 379 ------- 0 0.0 1.0 119 119
r 4.860068 0 1 udp 379 ------- 0 0.0 1.0 118 118
- 4.860068 0 1 udp 379 ------- 0 0.0 1.0 119 119
+ 4.881924 0 1 udp 379 ------- 0 0.0 1.0 120 120
r 4.890388 0 1 udp 379 ------- 0 0.0 1.0 119 119
- 4.890388 0 1 udp 379 ------- 0 0.0 1.0 120 120
+ 4.912152 0 1 udp 379 ------- 0 0.0 1.0 121 121
r 4.920708 0 1 udp 379 ------- 0 0.0 1.0 120 120
- 4.920708 0 1 udp 379 ------- 0 0.0 1.0 121 121
+ 4.922489 0 1 udp 379 ------- 0 0.0 1.0 122 122
+ 4.946868 0 1 udp 379 ------- 0 0.0 1.0 123 123
+ 4.950536 0 1 udp 379 ------- 0 0.0 1.0 124 124
r 4.951028 0 1 udp 379 ------- 0 0.0 1.0 121 121
- 4.951028 0 1 udp 379 ------- 0 0.0 1.0 122 122
+ 4.966474 0 1 udp 379 ------- 0 0.0 1.0 125 125
+ 4.971915 0 1 udp 379 ------- 0 0.0 1.0 126 126
r 4.981348 0 1 udp 379 ------- 0 0.0 1.0 122 122
- 4.981348 0 1 udp 379 ------- 0 0.0 1.0 123 123
r 5.011668 0 1 udp 379 ------- 0 0.0 1.0 123 123
- 5.011668 0 1 udp 379 ------- 0 0.0 1.0 124 124
+ 5.033933 0 1 udp 379 ------- 0 0.0 1.0 127 127
r 5.041988 0 1 udp 379 ------- 0 0.0 1.0 124 124
- 5.041988 0 1 udp 379 ------- 0 0.0 1.0 125 125
r 5.072308 0 1 udp 379 ------- 0 0.0 1.0 125 125
- 5.072308 0 1 udp 379 ------- 0 0.0 1.0 126 126
+ 5.082615 0 1 udp 379 ------- 0 0.0 1.0 128 128
r 5.102628 0 1 udp 379 ------- 0 0.0 1.0 126 126
- 5.102628 0 1 udp 379 ------- 0 0.0 1.0 127 127
r 5.132948 0 1 udp 379 ------- 0 0.0 1.0 127 127
- 5.132948 0 1 udp 379 ------- 0 0.0 1.0 128 128
r 5.163268 0 1 udp 379 ------- 0 0.0 1.0 128 128
+ 5.174914 0 1 udp 379 ------- 0 0.0 1.0 129 129
- 5.174914 0 1 udp 379 ------- 0 0.0 1.0 129 129
r 5.205234 0 1 udp 379 ------- 0 0.0 1.0 129 129
+ 5.233277 0 1 udp 379 ------- 0 0.0 1.0 130 130
- 5.233277 0 1 udp 379 ------- 0 0.0 1.0 130 130
+ 5.237914 0 1 udp 379 ------- 0 0.0 1.0 131 131
r 5.263597 0 1 udp 379 ------- 0 0.0 1.0 130 130
- 5.263597 0 1 udp 379 ------- 0 0.0 1.0 131 131
r 5.293917 0 1 udp 379 ------- 0 0.0 1.0 131 131
+ 5.346714 0 1 udp 379 ------- 0 0.0 1.0 132 132
- 5.346714 0 1 udp 379 ------- 0 0.0 1.0 132 132
+ 5.365142 0 1 udp 379 ------- 0 0.0 1.0 133 133
+ 5.376854 0 1 udp 379 ------- 0 0.0 1.0 134 134
r 5.377034 0 1 udp 379 ------- 0 0.0 1.0 132 132
- 5.377034 0 1 udp 379 ------- 0 0.0 1.0 133 133
r 5.407354 0 1 udp 379 ------- 0 0.0 1.0 133 133
- 5.407354 0 1 udp 379 ------- 0 0.0 1.0 134 134
+ 5.426805 0 1 udp 379 ------- 0 0.0 1.0 135 135
+ 5.433069 0 1 udp 379 ------- 0 0.0 1.0 136 136
r 5.437674 0 1 udp 379 ------- 0 0.0 1.0 134 134
- 5.437674 0 1 udp 379 ------- 0 0.0 1.0 135 135
r 5.467994 0 1 udp 379 ------- 0 0.0 1.0 135 135
- 5.467994 0 1 udp 379 ------- 0 0.0 1.0 136 136
r 5.498314 0 1 udp 379 ------- 0 0.0 1.0 136 136
+ 5.528536 0 1 udp 379 ------- 0 0.0 1.0 137 137
- 5.528536 0 1 udp 379 ------- 0 0.0 1.0 137 137
r 5.558856 0 1 udp 379 ------- 0 0.0 1.0 137 137
+ 5.564863 0 1 udp 379 ------- 0 0.0 1.0 138 138
- 5.564863 0 1 udp 379 ------- 0 0.0 1.0 138 138
+ 5.572628 0 1 udp 379 ------- 0 0.0 1.0 139 139
+ 5.587809 0 1 udp 379 ------- 0 0.0 1.0 140 140
r 5.595183 0 1 udp 379 ------- 0 0.0 1.0 138 138
- 5.595183 0 1 udp 379 ------- 0 0.0 1.0 139 139
+ 5.615959 0 1 udp 379 ------- 0 0.0 1.0 141 141
r 5.625503 0 1 udp 379 ------- 0 0.0 1.0 139 139
- 5.625503 0 1 udp 379 ------- 0 0.0 1.0 140 140
r 5.655823 0 1 udp 379 ------- 0 0.0 1.0 140 140
- 5.655823 0 1 udp 379 ------- 0 0.0 1.0 141 141
+ 5.665593 0 1 udp 379 ------- 0 0.0 1.0 142 142
r 5.686143 0 1 udp 379 ------- 0 0.0 1.0 141 141
- 5.686143 0 1 udp 379 ------- 0 0.0 1.0 142 142
+ 5.693095 0 1 udp 379 ------- 0 0.0 1.0 143 143
+ 5.695181 0 1 udp 379 ------- 0 0.0 1.0 144 144
r 5.716463 0 1 udp 379 ------- 0 0.0 1.0 142 142
- 5.716463 0 1 udp 379 ------- 0 0.0 1.0 143 143
+ 5.721329 0 1 udp 379 ------- 0 0.0 1.0 145 145
+ 5.724823 0 1 udp 379 ------- 0 0.0 1.0 146 146
+ 5.726277 0 1 udp 379 ------- 0 0.0 1.0 147 147
+ 5.729612 0 1 udp 379 ------- 0 0.0 1.0 148 148
r 5.746783 0 1 udp 379 ------- 0 0.0 1.0 143 143
- 5.746783 0 1 udp 379 ------- 0 0.0 1.0 144 144
r 5.777103 0 1 udp 379 ------- 0 0.0 1.0 144 144
- 5.777103 0 1 udp 379 ------- 0 0.0 1.0 145 145
+ 5.793088 0 1 udp 379 ------- 0 0.0 1.0 149 149
+ 5.794991 0 1 udp 379 ------- 0 0.0 1.0 150 150
r 5.807423 0 1 udp 379 ------- 0 0.0 1.0 145 145
- 5.807423 0 1 udp 379 ------- 0 0.0 1.0 146 146
+ 5.815724 0 1 udp 379 ------- 0 0.0 1.0 151 151
+ 5.836762 0 1 udp 379 ------- 0 0.0 1.0 152 152
r 5.837743 0 1 udp 379 ------- 0 0.0 1.0 146 146
- 5.837743 0 1 udp 379 ------- 0 0.0 1.0 147 147
r 5.868063 0 1 udp 379 ------- 0 0.0 1.0 147 147
- 5.868063 0 1 udp 379 ------- 0 0.0 1.0 148 148
r 5.898383 0 1 udp 379 ------- 0 0.0 1.0 148 148
- 5.898383 0 1 udp 379 ------- 0 0.0 1.0 149 149
+ 5.928034 0 1 udp 379 ------- 0 0.0 1.0 153 153
r 5.928703 0 1 udp 379 ------- 0 0.0 1.0 149 149
- 5.928703 0 1 udp 379 ------- 0 0.0 1.0 150 150
+ 5.928996 0 1 udp 379 ------- 0 0.0 1.0 154 154
+ 5.951142 0 1 udp 379 ------- 0 0.0 1.0 155 155
+ 5.955408 0 1 udp 379 ------- 0 0.0 1.0 156 156
r 5.959023 0 1 udp 379 ------- 0 0.0 1.0 150 150
- 5.959023 0 1 udp 379 ------- 0 0.0 1.0 151 151
+ 5.966015 0 1 udp 379 ------- 0 0.0 1.0 157 157
r 5.989343 0 1 udp 379 ------- 0 0.0 1.0 151 151
- 5.989343 0 1 udp 379 ------- 0 0.0 1.0 152 152
+ 6.011002 0 1 udp 379 ------- 0 0.0 1.0 158 158
r 6.019663 0 1 udp 379 ------- 0 0.0 1.0 152 152
- 6.019663 0 1 udp 379 ------- 0 0.0 1.0 153 153
+ 6.035749 0 1 udp 379 ------- 0 0.0 1.0 159 159
+ 6.045449 0 1 udp 379 ------- 0 0.0 1.0 160 160
r 6.049983 0 1 udp 379 ------- 0 0.0 1.0 153 153
- 6.049983 0 1 udp 379 ------- 0 0.0 1.0 154 154
r 6.080303 0 1 udp 379 ------- 0 0.0 1.0 154 154
- 6.080303 0 1 udp 379 ------- 0 0.0 1.0 155 155
+ 6.098663 0 1 udp 379 ------- 0 0.0 1.0 161 161
r 6.110623 0 1 udp 379 ------- 0 0.0 1.0 155 155
- 6.110623 0 1 udp 379 ------- 0 0.0 1.0 156 156
+ 6.111878 0 1 udp 379 ------- 0 0.0 1.0 162 162
+ 6.126008 0 1 udp 379 ------- 0 0.0 1.0 163 163
r 6.140943 0 1 udp 379 ------- 0 0.0 1.0 156 156
- 6.140943 0 1 udp 379 ------- 0 0.0 1.0 157 157
r 6.171263 0 1 udp 379 ------- 0 0.0 1.0 157 157
- 6.171263 0 1 udp 379 ------- 0 0.0 1.0 158 158
+ 6.187323 0 1 udp 379 ------- 0 0.0 1.0 164 164
r 6.201583 0 1 udp 379 ------- 0 0.0 1.0 158 158
- 6.201583 0 1 udp 379 ------- 0 0.0 1.0 159 159
r 6.231903 0 1 udp 379 ------- 0 0.0 1.0 159 159
- 6.231903 0 1 udp 379 ------- 0 0.0 1.0 160 160
+ 6.23207 0 1 udp 379 ------- 0 0.0 1.0 165 165
r 6.262223 0 1 udp 379 ------- 0 0.0 1.0 160 160
- 6.262223 0 1 udp 379 ------- 0 0.0 1.0 161 161
+ 6.264769 0 1 udp 379 ------- 0 0.0 1.0 166 166
+ 6.281317 0 1 udp 379 ------- 0 0.0 1.0 167 167
r 6.292543 0 1 udp 379 ------- 0 0.0 1.0 161 161
- 6.292543 0 1 udp 379 ------- 0 0.0 1.0 162 162
+ 6.295541 0 1 udp 379 ------- 0 0.0 1.0 168 168
+ 6.300833 0 1 udp 379 ------- 0 0.0 1.0 169 169
r 6.322863 0 1 udp 379 ------- 0 0.0 1.0 162 162
- 6.322863 0 1 udp 379 ------- 0 0.0 1.0 163 163
+ 6.343642 0 1 udp 379 ------- 0 0.0 1.0 170 170
r 6.353183 0 1 udp 379 ------- 0 0.0 1.0 163 163
- 6.353183 0 1 udp 379 ------- 0 0.0 1.0 164 164
r 6.383503 0 1 udp 379 ------- 0 0.0 1.0 164 164
- 6.383503 0 1 udp 379 ------- 0 0.0 1.0 165 165
+ 6.404015 0 1 udp 379 ------- 0 0.0 1.0 171 171
r 6.413823 0 1 udp 379 ------- 0 0.0 1.0 165 165
- 6.413823 0 1 udp 379 ------- 0 0.0 1.0 166 166
r 6.444143 0 1 udp 379 ------- 0 0.0 1.0 166 166
- 6.444143 0 1 udp 379 ------- 0 0.0 1.0 167 167
+ 6.459421 0 1 udp 379 ------- 0 0.0 1.0 172 172
r 6.474463 0 1 udp 379 ------- 0 0.0 1.0 167 167
- 6.474463 0 1 udp 379 ------- 0 0.0 1.0 168 168
r 6.504783 0 1 udp 379 ------- 0 0.0 1.0 168 168
- 6.504783 0 1 udp 379 ------- 0 0.0 1.0 169 169
r 6.535103 0 1 udp 379 ------- 0 0.0 1.0 169 169
- 6.535103 0 1 udp 379 ------- 0 0.0 1.0 170 170
r 6.565423 0 1 udp 379 ------- 0 0.0 1.0 170 170
- 6.565423 0 1 udp 379 ------- 0 0.0 1.0 171 171
+ 6.566502 0 1 udp 379 ------- 0 0.0 1.0 173 173
r 6.595743 0 1 udp 379 ------- 0 0.0 1.0 171 171
- 6.595743 0 1 udp 379 ------- 0 0.0 1.0 172 172
r 6.626063 0 1 udp 379 ------- 0 0.0 1.0 172 172
- 6.626063 0 1 udp 379 ------- 0 0.0 1.0 173 173
+ 6.652657 0 1 udp 379 ------- 0 0.0 1.0 174 174
r 6.656383 0 1 udp 379 ------- 0 0.0 1.0 173 173
- 6.656383 0 1 udp 379 ------- 0 0.0 1.0 174 174
r 6.686703 0 1 udp 379 ------- 0 0.0 1.0 174 174
+ 6.72421 0 1 udp 379 ------- 0 0.0 1.0 175 175
- 6.72421 0 1 udp 379 ------- 0 0.0 1.0 175 175
r 6.75453 0 1 udp 379 ------- 0 0.0 1.0 175 175
+ 6.822538 0 1 udp 379 ------- 0 0.0 1.0 176 176
- 6.822538 0 1 udp 379 ------- 0 0.0 1.0 176 176
r 6.852858 0 1 udp 379 ------- 0 0.0 1.0 176 176
+ 6.857018 0 1 udp 379 ------- 0 0.0 1.0 177 177
- 6.857018 0 1 udp 379 ------- 0 0.0 1.0 177 177
r 6.887338 0 1 udp 379 ------- 0 0.0 1.0 177 177
+ 6.908877 0 1 udp 379 ------- 0 0.0 1.0 178 178
- 6.908877 0 1 udp 379 ------- 0 0.0 1.0 178 178
r 6.939197 0 1 udp 379 ------- 0 0.0 1.0 178 178
+ 7.006322 0 1 udp 379 ------- 0 0.0 1.0 179 179
- 7.006322 0 1 udp 379 ------- 0 0.0 1.0 179 179
+ 7.007913 0 1 udp 379 ------- 0 0.0 1.0 180 180
+ 7.014505 0 1 udp 379 ------- 0 0.0 1.0 181 181
+ 7.026114 0 1 udp 379 ------- 0 0.0 1.0 182 182
r 7.036642 0 1 udp 379 ------- 0 0.0 1.0 179 179
- 7.036642 0 1 udp 379 ------- 0 0.0 1.0 180 180
+ 7.054503 0 1 udp 379 ------- 0 0.0 1.0 183 183
+ 7.060775 0 1 udp 379 ------- 0 0.0 1.0 184 184
r 7.066962 0 1 udp 379 ------- 0 0.0 1.0 180 180
- 7.066962 0 1 udp 379 ------- 0 0.0 1.0 181 181
+ 7.092236 0 1 udp 379 ------- 0 0.0 1.0 185 185
r 7.097282 0 1 udp 379 ------- 0 0.0 1.0 181 181
- 7.097282 0 1 udp 379 ------- 0 0.0 1.0 182 182
+ 7.112767 0 1 udp 379 ------- 0 0.0 1.0 186 186
r 7.127602 0 1 udp 379 ------- 0 0.0 1.0 182 182
- 7.127602 0 1 udp 379 ------- 0 0.0 1.0 183 183
r 7.157922 0 1 udp 379 ------- 0 0.0 1.0 183 183
- 7.157922 0 1 udp 379 ------- 0 0.0 1.0 184 184
+ 7.181502 0 1 udp 379 ------- 0 0.0 1.0 187 187
r 7.188242 0 1 udp 379 ------- 0 0.0 1.0 184 184
- 7.188242 0 1 udp 379 ------- 0 0.0 1.0 185 185
+ 7.19983 0 1 udp 379 ------- 0 0.0 1.0 188 188
r 7.218562 0 1 udp 379 ------- 0 0.0 1.0 185 185
- 7.218562 0 1 udp 379 ------- 0 0.0 1.0 186 186
+ 7.229278 0 1 udp 379 ------- 0 0.0 1.0 189 189
+ 7.235678 0 1 udp 379 ------- 0 0.0 1.0 190 190
+ 7.242944 0 1 udp 379 ------- 0 0.0 1.0 191 191
+ 7.248126 0 1 udp 379 ------- 0 0.0 1.0 192 192
r 7.248882 0 1 udp 379 ------- 0 0.0 1.0 186 186
- 7.248882 0 1 udp 379 ------- 0 0.0 1.0 187 187
r 7.279202 0 1 udp 379 ------- 0 0.0 1.0 187 187
- 7.279202 0 1 udp 379 ------- 0 0.0 1.0 188 188
r 7.309522 0 1 udp 379 ------- 0 0.0 1.0 188 188
- 7.309522 0 1 udp 379 ------- 0 0.0 1.0 189 189
r 7.339842 0 1 udp 379 ------- 0 0.0 1.0 189 189
- 7.339842 0 1 udp 379 ------- 0 0.0 1.0 190 190
r 7.370162 0 1 udp 379 ------- 0 0.0 1.0 190 190
- 7.370162 0 1 udp 379 ------- 0 0.0 1.0 191 191
r 7.400482 0 1 udp 379 ------- 0 0.0 1.0 191 191
- 7.400482 0 1 udp 379 ------- 0 0.0 1.0 192 192
r 7.430802 0 1 udp 379 ------- 0 0.0 1.0 192 192
+ 7.438259 0 1 udp 379 ------- 0 0.0 1.0 193 193
- 7.438259 0 1 udp 379 ------- 0 0.0 1.0 193 193
+ 7.446042 0 1 udp 379 ------- 0 0.0 1.0 194 194
r 7.468579 0 1 udp 379 ------- 0 0.0 1.0 193 193
- 7.468579 0 1 udp 379 ------- 0 0.0 1.0 194 194
r 7.498899 0 1 udp 379 ------- 0 0.0 1.0 194 194
+ 7.532778 0 1 udp 379 ------- 0 0.0 1.0 195 195
- 7.532778 0 1 udp 379 ------- 0 0.0 1.0 195 195
r 7.563098 0 1 udp 379 ------- 0 0.0 1.0 195 195
+ 7.585103 0 1 udp 379 ------- 0 0.0 1.0 196 196
- 7.585103 0 1 udp 379 ------- 0 0.0 1.0 196 196
+ 7.591042 0 1 udp 379 ------- 0 0.0 1.0 197 197
r 7.615423 0 1 udp 379 ------- 0 0.0 1.0 196 196
- 7.615423 0 1 udp 379 ------- 0 0.0 1.0 197 197
+ 7.615949 0 1 udp 379 ------- 0 0.0 1.0 198 198
r 7.645743 0 1 udp 379 ------- 0 0.0 1.0 197 197
- 7.645743 0 1 udp 379 ------- 0 0.0 1.0 198 198
r 7.676063 0 1 udp 379 ------- 0 0.0 1.0 198 198
+ 7.677833 0 1 udp 379 ------- 0 0.0 1.0 199 199
- 7.677833 0 1 udp 379 ------- 0 0.0 1.0 199 199
r 7.708153 0 1 udp 379 ------- 0 0.0 1.0 199 199
+ 7.721949 0 1 udp 379 ------- 0 0.0 1.0 200 200
- 7.721949 0 1 udp 379 ------- 0 0.0 1.0 200 200
r 7.752269 0 1 udp 379 ------- 0 0.0 1.0 200 200
+ 7.853778 0 1 udp 379 ------- 0 0.0 1.0 201 201
- 7.853778 0 1 udp 379 ------- 0 0.0 1.0 201 201
+ 7.865587 0 1 udp 379 ------- 0 0.0 1.0 202 202
r 7.884098 0 1 udp 379 ------- 0 0.0 1.0 201 201
- 7.884098 0 1 udp 379 ------- 0 0.0 1.0 202 202
+ 7.893857 0 1 udp 379 ------- 0 0.0 1.0 203 203
r 7.914418 0 1 udp 379 ------- 0 0.0 1.0 202 202
- 7.914418 0 1 udp 379 ------- 0 0.0 1.0 203 203
+ 7.918052 0 1 udp 379 ------- 0 0.0 1.0 204 204
r 7.944738 0 1 udp 379 ------- 0 0.0 1.0 203 203
- 7.944738 0 1 udp 379 ------- 0 0.0 1.0 204 204
+ 7.957709 0 1 udp 379 ------- 0 0.0 1.0 205 205
r 7.975058 0 1 udp 379 ------- 0 0.0 1.0 204 204
- 7.975058 0 1 udp 379 ------- 0 0.0 1.0 205 205
r 8.005378 0 1 udp 379 ------- 0 0.0 1.0 205 205
+ 8.120554 0 1 udp 379 ------- 0 0.0 1.0 206 206
- 8.120554 0 1 udp 379 ------- 0 0.0 1.0 206 206
+ 8.133053 0 1 udp 379 ------- 0 0.0 1.0 207 207
r 8.150874 0 1 udp 379 ------- 0 0.0 1.0 206 206
- 8.150874 0 1 udp 379 ------- 0 0.0 1.0 207 207
+ 8.177925 0 1 udp 379 ------- 0 0.0 1.0 208 208
r 8.181194 0 1 udp 379 ------- 0 0.0 1.0 207 207
- 8.181194 0 1 udp 379 ------- 0 0.0 1.0 208 208