+ 1.2760 21 8 exp 210 ------- 0 21.1 8.1 0 0 -8.70 8.70 -12.60 12.60
- 1.2760 21 8 exp 210 ------- 0 21.1 8.1 0 0 -8.70 8.70 -12.60 12.60
+ 1.2866 20 7 exp 210 ------- 0 20.1 7.1 0 1 -9.00 9.00 -12.90 12.90
- 1.2866 20 7 exp 210 ------- 0 20.1 7.1 0 1 -9.00 9.00 -12.90 12.90
+ 1.3562 14 1 exp 210 ------- 0 14.1 1.1 0 2 -10.80 10.80 -14.70 14.70
- 1.3562 14 1 exp 210 ------- 0 14.1 1.1 0 2 -10.80 10.80 -14.70 14.70
+ 1.3869 16 3 exp 210 ------- 0 16.1 3.1 0 3 -10.20 10.20 -14.10 14.10
- 1.3869 16 3 exp 210 ------- 0 16.1 3.1 0 3 -10.20 10.20 -14.10 14.10
+ 1.4290 6 18 exp 210 ------- 0 6.0 18.0 0 4 -13.20 13.20 -9.60 9.60
- 1.4290 6 18 exp 210 ------- 0 6.0 18.0 0 4 -13.20 13.20 -9.60 9.60
+ 1.4866 4 16 exp 210 ------- 0 4.0 16.0 0 5 -13.80 13.80 -10.20 10.20
- 1.4866 4 16 exp 210 ------- 0 4.0 16.0 0 5 -13.80 13.80 -10.20 10.20
r 1.5175 21 8 exp 210 ------- 0 21.1 8.1 0 0 -8.70 8.70 -12.60 12.60
r 1.5281 20 7 exp 210 ------- 0 20.1 7.1 0 1 -9.00 9.00 -12.90 12.90
+ 1.5381 3 15 exp 210 ------- 0 3.0 15.0 0 6 -14.10 14.10 -10.50 10.50
- 1.5381 3 15 exp 210 ------- 0 3.0 15.0 0 6 -14.10 14.10 -10.50 10.50
r 1.5983 14 1 exp 210 ------- 0 14.1 1.1 0 2 -10.80 10.80 -14.70 14.70
r 1.6288 16 3 exp 210 ------- 0 16.1 3.1 0 3 -10.20 10.20 -14.10 14.10
+ 1.6516 17 4 exp 210 ------- 0 17.1 4.1 0 7 -9.90 9.90 -13.80 13.80
- 1.6516 17 4 exp 210 ------- 0 17.1 4.1 0 7 -9.90 9.90 -13.80 13.80
r 1.6706 6 18 exp 210 ------- 0 6.0 18.0 0 4 -13.20 13.20 -9.60 9.60
+ 1.7099 17 4 exp 210 ------- 0 17.1 4.1 1 8 -9.90 9.90 -13.80 13.80
r 1.7285 4 16 exp 210 ------- 0 4.0 16.0 0 5 -13.80 13.80 -10.20 10.20
r 1.7800 3 15 exp 210 ------- 0 3.0 15.0 0 6 -14.10 14.10 -10.50 10.50
- 1.8927 17 4 exp 210 ------- 0 17.1 4.1 1 8 -9.90 9.90 -13.80 13.80
r 1.8934 17 4 exp 210 ------- 0 17.1 4.1 0 7 -9.90 9.90 -13.80 13.80
+ 2.0100 6 18 exp 210 ------- 0 6.0 18.0 1 9 -13.20 13.20 -9.60 9.60
- 2.0100 6 18 exp 210 ------- 0 6.0 18.0 1 9 -13.20 13.20 -9.60 9.60
+ 2.0753 5 17 exp 210 ------- 0 5.0 17.0 0 10 -13.50 13.50 -9.90 9.90
- 2.0753 5 17 exp 210 ------- 0 5.0 17.0 0 10 -13.50 13.50 -9.90 9.90
+ 2.1055 4 16 exp 210 ------- 0 4.0 16.0 1 11 -13.80 13.80 -10.20 10.20
- 2.1055 4 16 exp 210 ------- 0 4.0 16.0 1 11 -13.80 13.80 -10.20 10.20
r 2.1345 17 4 exp 210 ------- 0 17.1 4.1 1 8 -9.90 9.90 -13.80 13.80
+ 2.2460 23 10 exp 210 ------- 0 23.1 10.1 0 12 -8.10 8.10 -12.00 12.00
- 2.2460 23 10 exp 210 ------- 0 23.1 10.1 0 12 -8.10 8.10 -12.00 12.00
r 2.2516 6 18 exp 210 ------- 0 6.0 18.0 1 9 -13.20 13.20 -9.60 9.60
r 2.3171 5 17 exp 210 ------- 0 5.0 17.0 0 10 -13.50 13.50 -9.90 9.90
r 2.3474 4 16 exp 210 ------- 0 4.0 16.0 1 11 -13.80 13.80 -10.20 10.20
+ 2.3578 6 18 exp 210 ------- 0 6.0 18.0 2 13 -13.20 13.20 -9.60 9.60
- 2.3578 6 18 exp 210 ------- 0 6.0 18.0 2 13 -13.20 13.20 -9.60 9.60
+ 2.4093 1 13 exp 210 ------- 0 1.0 13.0 0 14 -14.70 14.70 -11.10 11.10
- 2.4093 1 13 exp 210 ------- 0 1.0 13.0 0 14 -14.70 14.70 -11.10 11.10
+ 2.4115 3 15 exp 210 ------- 0 3.0 15.0 1 15 -14.10 14.10 -10.50 10.50
- 2.4115 3 15 exp 210 ------- 0 3.0 15.0 1 15 -14.10 14.10 -10.50 10.50
r 2.4872 23 10 exp 210 ------- 0 23.1 10.1 0 12 -8.10 8.10 -12.00 12.00
+ 2.4912 23 10 exp 210 ------- 0 23.1 10.1 1 16 -8.10 8.10 -12.00 12.00
- 2.4912 23 10 exp 210 ------- 0 23.1 10.1 1 16 -8.10 8.10 -12.00 12.00
r 2.5994 6 18 exp 210 ------- 0 6.0 18.0 2 13 -13.20 13.20 -9.60 9.60
r 2.6515 1 13 exp 210 ------- 0 1.0 13.0 0 14 -14.70 14.70 -11.10 11.10
r 2.6535 3 15 exp 210 ------- 0 3.0 15.0 1 15 -14.10 14.10 -10.50 10.50
+ 2.6792 6 18 exp 210 ------- 0 6.0 18.0 3 17 -13.20 13.20 -9.60 9.60
- 2.6792 6 18 exp 210 ------- 0 6.0 18.0 3 17 -13.20 13.20 -9.60 9.60
r 2.7325 23 10 exp 210 ------- 0 23.1 10.1 1 16 -8.10 8.10 -12.00 12.00
+ 2.7336 21 8 exp 210 ------- 0 21.1 8.1 1 18 -8.70 8.70 -12.60 12.60
- 2.7336 21 8 exp 210 ------- 0 21.1 8.1 1 18 -8.70 8.70 -12.60 12.60
+ 2.8140 5 17 exp 210 ------- 0 5.0 17.0 1 19 -13.50 13.50 -9.90 9.90
- 2.8140 5 17 exp 210 ------- 0 5.0 17.0 1 19 -13.50 13.50 -9.90 9.90
+ 2.8320 13 25 exp 210 ------- 0 13.1 25.0 0 20 -11.10 11.10 -7.50 7.50
- 2.8320 13 25 exp 210 ------- 0 13.1 25.0 0 20 -11.10 11.10 -7.50 7.50
r 2.9208 6 18 exp 210 ------- 0 6.0 18.0 3 17 -13.20 13.20 -9.60 9.60
r 2.9750 21 8 exp 210 ------- 0 21.1 8.1 1 18 -8.70 8.70 -12.60 12.60
+ 2.9805 23 10 exp 210 ------- 0 23.1 10.1 2 21 -8.10 8.10 -12.00 12.00
- 2.9805 23 10 exp 210 ------- 0 23.1 10.1 2 21 -8.10 8.10 -12.00 12.00
r 3.0557 5 17 exp 210 ------- 0 5.0 17.0 1 19 -13.50 13.50 -9.90 9.90
+ 3.0612 9 21 exp 210 ------- 0 9.0 21.0 0 22 -12.30 12.30 -8.70 8.70
- 3.0612 9 21 exp 210 ------- 0 9.0 21.0 0 22 -12.30 12.30 -8.70 8.70
r 3.0730 13 25 exp 210 ------- 0 13.1 25.0 0 20 -11.10 11.10 -7.50 7.50
+ 3.1455 1 13 exp 210 ------- 0 1.0 13.0 1 23 -14.70 14.70 -11.10 11.10
- 3.1455 1 13 exp 210 ------- 0 1.0 13.0 1 23 -14.70 14.70 -11.10 11.10
+ 3.1475 12 24 exp 210 ------- 0 12.0 24.0 0 24 -11.40 11.40 -7.80 7.80
- 3.1475 12 24 exp 210 ------- 0 12.0 24.0 0 24 -11.40 11.40 -7.80 7.80
+ 3.1662 18 5 exp 210 ------- 0 18.1 5.1 0 25 -9.60 9.60 -13.50 13.50
- 3.1662 18 5 exp 210 ------- 0 18.1 5.1 0 25 -9.60 9.60 -13.50 13.50
+ 3.1740 19 6 exp 210 ------- 0 19.1 6.1 0 26 -9.30 9.30 -13.20 13.20
- 3.1740 19 6 exp 210 ------- 0 19.1 6.1 0 26 -9.30 9.30 -13.20 13.20
r 3.2217 23 10 exp 210 ------- 0 23.1 10.1 2 21 -8.10 8.10 -12.00 12.00
r 3.3025 9 21 exp 210 ------- 0 9.0 21.0 0 22 -12.30 12.30 -8.70 8.70
r 3.3876 1 13 exp 210 ------- 0 1.0 13.0 1 23 -14.70 14.70 -11.10 11.10
r 3.3886 12 24 exp 210 ------- 0 12.0 24.0 0 24 -11.40 11.40 -7.80 7.80
+ 3.4059 14 1 exp 210 ------- 0 14.1 1.1 1 27 -10.80 10.80 -14.70 14.70
- 3.4059 14 1 exp 210 ------- 0 14.1 1.1 1 27 -10.80 10.80 -14.70 14.70
r 3.4079 18 5 exp 210 ------- 0 18.1 5.1 0 25 -9.60 9.60 -13.50 13.50
+ 3.4135 17 4 exp 210 ------- 0 17.1 4.1 2 28 -9.90 9.90 -13.80 13.80
- 3.4135 17 4 exp 210 ------- 0 17.1 4.1 2 28 -9.90 9.90 -13.80 13.80
r 3.4156 19 6 exp 210 ------- 0 19.1 6.1 0 26 -9.30 9.30 -13.20 13.20
+ 3.4730 18 5 exp 210 ------- 0 18.1 5.1 1 29 -9.60 9.60 -13.50 13.50
- 3.4730 18 5 exp 210 ------- 0 18.1 5.1 1 29 -9.60 9.60 -13.50 13.50
+ 3.5282 11 23 exp 210 ------- 0 11.0 23.0 0 30 -11.70 11.70 -8.10 8.10
- 3.5282 11 23 exp 210 ------- 0 11.0 23.0 0 30 -11.70 11.70 -8.10 8.10
r 3.6481 14 1 exp 210 ------- 0 14.1 1.1 1 27 -10.80 10.80 -14.70 14.70
r 3.6553 17 4 exp 210 ------- 0 17.1 4.1 2 28 -9.90 9.90 -13.80 13.80
+ 3.6637 6 18 exp 210 ------- 0 6.0 18.0 4 31 -13.20 13.20 -9.60 9.60
- 3.6637 6 18 exp 210 ------- 0 6.0 18.0 4 31 -13.20 13.20 -9.60 9.60
r 3.7147 18 5 exp 210 ------- 0 18.1 5.1 1 29 -9.60 9.60 -13.50 13.50
r 3.7694 11 23 exp 210 ------- 0 11.0 23.0 0 30 -11.70 11.70 -8.10 8.10
+ 3.8513 23 10 exp 210 ------- 0 23.1 10.1 3 32 -8.10 8.10 -12.00 12.00
- 3.8513 23 10 exp 210 ------- 0 23.1 10.1 3 32 -8.10 8.10 -12.00 12.00
r 3.9053 6 18 exp 210 ------- 0 6.0 18.0 4 31 -13.20 13.20 -9.60 9.60
+ 3.9804 17 4 exp 210 ------- 0 17.1 4.1 3 33 -9.90 9.90 -13.80 13.80
- 3.9804 17 4 exp 210 ------- 0 17.1 4.1 3 33 -9.90 9.90 -13.80 13.80
+ 4.0673 16 3 exp 210 ------- 0 16.1 3.1 1 34 -10.20 10.20 -14.10 14.10
- 4.0673 16 3 exp 210 ------- 0 16.1 3.1 1 34 -10.20 10.20 -14.10 14.10
+ 4.0797 14 1 exp 210 ------- 0 14.1 1.1 2 35 -10.80 10.80 -14.70 14.70
- 4.0797 14 1 exp 210 ------- 0 14.1 1.1 2 35 -10.80 10.80 -14.70 14.70
r 4.0925 23 10 exp 210 ------- 0 23.1 10.1 3 32 -8.10 8.10 -12.00 12.00
r 4.2222 17 4 exp 210 ------- 0 17.1 4.1 3 33 -9.90 9.90 -13.80 13.80
+ 4.2609 25 12 exp 210 ------- 0 25.1 12.1 0 36 -7.50 7.50 -11.40 11.40
- 4.2609 25 12 exp 210 ------- 0 25.1 12.1 0 36 -7.50 7.50 -11.40 11.40
r 4.3092 16 3 exp 210 ------- 0 16.1 3.1 1 34 -10.20 10.20 -14.10 14.10
r 4.3218 14 1 exp 210 ------- 0 14.1 1.1 2 35 -10.80 10.80 -14.70 14.70
r 4.5019 25 12 exp 210 ------- 0 25.1 12.1 0 36 -7.50 7.50 -11.40 11.40
+ 4.5028 20 7 exp 210 ------- 0 20.1 7.1 1 37 -9.00 9.00 -12.90 12.90
- 4.5028 20 7 exp 210 ------- 0 20.1 7.1 1 37 -9.00 9.00 -12.90 12.90
+ 4.5223 25 12 exp 210 ------- 0 25.1 12.1 1 38 -7.50 7.50 -11.40 11.40
- 4.5223 25 12 exp 210 ------- 0 25.1 12.1 1 38 -7.50 7.50 -11.40 11.40
+ 4.6651 15 2 exp 210 ------- 0 15.1 2.1 0 39 -10.50 10.50 -14.40 14.40
- 4.6651 15 2 exp 210 ------- 0 15.1 2.1 0 39 -10.50 10.50 -14.40 14.40
r 4.7443 20 7 exp 210 ------- 0 20.1 7.1 1 37 -9.00 9.00 -12.90 12.90
r 4.7633 25 12 exp 210 ------- 0 25.1 12.1 1 38 -7.50 7.50 -11.40 11.40
+ 4.8165 14 1 exp 210 ------- 0 14.1 1.1 3 40 -10.80 10.80 -14.70 14.70
- 4.8165 14 1 exp 210 ------- 0 14.1 1.1 3 40 -10.80 10.80 -14.70 14.70
+ 4.8899 3 15 exp 210 ------- 0 3.0 15.0 2 41 -14.10 14.10 -10.50 10.50
- 4.8899 3 15 exp 210 ------- 0 3.0 15.0 2 41 -14.10 14.10 -10.50 10.50
+ 4.8906 20 7 exp 210 ------- 0 20.1 7.1 2 42 -9.00 9.00 -12.90 12.90
- 4.8906 20 7 exp 210 ------- 0 20.1 7.1 2 42 -9.00 9.00 -12.90 12.90
+ 4.8947 21 8 exp 210 ------- 0 21.1 8.1 2 43 -8.70 8.70 -12.60 12.60
- 4.8947 21 8 exp 210 ------- 0 21.1 8.1 2 43 -8.70 8.70 -12.60 12.60
r 4.9071 15 2 exp 210 ------- 0 15.1 2.1 0 39 -10.50 10.50 -14.40 14.40
r 5.0586 14 1 exp 210 ------- 0 14.1 1.1 3 40 -10.80 10.80 -14.70 14.70
c 5.1310 3 15 exp 210 ------- 0 3.0 15.0 2 41 -14.10 14.10 -10.50 10.50
c 5.1314 20 7 exp 210 ------- 0 20.1 7.1 2 42 -9.00 9.00 -12.90 12.90
r 5.1361 21 8 exp 210 ------- 0 21.1 8.1 2 43 -8.70 8.70 -12.60 12.60
+ 5.1769 5 17 exp 210 ------- 0 5.0 17.0 2 44 -13.50 13.50 -9.90 9.90
- 5.1769 5 17 exp 210 ------- 0 5.0 17.0 2 44 -13.50 13.50 -9.90 9.90
+ 5.3371 20 7 exp 210 ------- 0 20.1 7.1 3 45 -9.00 9.00 -12.90 12.90
+ 5.3827 18 5 exp 210 ------- 0 18.1 5.1 2 46 -9.60 9.60 -13.50 13.50
- 5.3827 18 5 exp 210 ------- 0 18.1 5.1 2 46 -9.60 9.60 -13.50 13.50
r 5.4187 5 17 exp 210 ------- 0 5.0 17.0 2 44 -13.50 13.50 -9.90 9.90
+ 5.4858 20 7 exp 210 ------- 0 20.1 7.1 4 47 -9.00 9.00 -12.90 12.90
r 5.6244 18 5 exp 210 ------- 0 18.1 5.1 2 46 -9.60 9.60 -13.50 13.50
+ 5.6318 18 5 exp 210 ------- 0 18.1 5.1 3 48 -9.60 9.60 -13.50 13.50
- 5.6318 18 5 exp 210 ------- 0 18.1 5.1 3 48 -9.60 9.60 -13.50 13.50
r 5.6334 3 15 exp 210 ------- 0 3.0 15.0 2 41 -14.10 14.10 -10.50 10.50
+ 5.6492 6 18 exp 210 ------- 0 6.0 18.0 5 49 -13.20 13.20 -9.60 9.60
- 5.6492 6 18 exp 210 ------- 0 6.0 18.0 5 49 -13.20 13.20 -9.60 9.60
+ 5.7235 20 7 exp 210 ------- 0 20.1 7.1 5 50 -9.00 9.00 -12.90 12.90
+ 5.7247 3 15 exp 210 ------- 0 3.0 15.0 3 51 -14.10 14.10 -10.50 10.50
- 5.7247 3 15 exp 210 ------- 0 3.0 15.0 3 51 -14.10 14.10 -10.50 10.50
+ 5.7675 18 5 exp 210 ------- 0 18.1 5.1 4 52 -9.60 9.60 -13.50 13.50
+ 5.7921 20 7 exp 210 ------- 0 20.1 7.1 6 53 -9.00 9.00 -12.90 12.90
- 5.8533 20 7 exp 210 ------- 0 20.1 7.1 3 45 -9.00 9.00 -12.90 12.90
r 5.8539 20 7 exp 210 ------- 0 20.1 7.1 2 42 -9.00 9.00 -12.90 12.90
+ 5.8692 12 24 exp 210 ------- 0 12.0 24.0 1 54 -11.40 11.40 -7.80 7.80
- 5.8692 12 24 exp 210 ------- 0 12.0 24.0 1 54 -11.40 11.40 -7.80 7.80
- 5.8728 18 5 exp 210 ------- 0 18.1 5.1 4 52 -9.60 9.60 -13.50 13.50
r 5.8735 18 5 exp 210 ------- 0 18.1 5.1 3 48 -9.60 9.60 -13.50 13.50
r 5.8908 6 18 exp 210 ------- 0 6.0 18.0 5 49 -13.20 13.20 -9.60 9.60
r 5.9667 3 15 exp 210 ------- 0 3.0 15.0 3 51 -14.10 14.10 -10.50 10.50
+ 5.9954 1 13 exp 210 ------- 0 1.0 13.0 2 55 -14.70 14.70 -11.10 11.10
- 5.9954 1 13 exp 210 ------- 0 1.0 13.0 2 55 -14.70 14.70 -11.10 11.10
+ 6.0274 24 11 exp 210 ------- 0 24.1 11.1 0 56 -7.80 7.80 -11.70 11.70
- 6.0274 24 11 exp 210 ------- 0 24.1 11.1 0 56 -7.80 7.80 -11.70 11.70
+ 6.0289 3 15 exp 210 ------- 0 3.0 15.0 4 57 -14.10 14.10 -10.50 10.50
- 6.0289 3 15 exp 210 ------- 0 3.0 15.0 4 57 -14.10 14.10 -10.50 10.50
- 6.0941 20 7 exp 210 ------- 0 20.1 7.1 4 47 -9.00 9.00 -12.90 12.90
r 6.0947 20 7 exp 210 ------- 0 20.1 7.1 3 45 -9.00 9.00 -12.90 12.90
r 6.1103 12 24 exp 210 ------- 0 12.0 24.0 1 54 -11.40 11.40 -7.80 7.80
r 6.1145 18 5 exp 210 ------- 0 18.1 5.1 4 52 -9.60 9.60 -13.50 13.50
+ 6.1326 16 3 exp 210 ------- 0 16.1 3.1 2 58 -10.20 10.20 -14.10 14.10
- 6.1326 16 3 exp 210 ------- 0 16.1 3.1 2 58 -10.20 10.20 -14.10 14.10
+ 6.2158 8 20 exp 210 ------- 0 8.0 20.0 0 59 -12.60 12.60 -9.00 9.00
- 6.2158 8 20 exp 210 ------- 0 8.0 20.0 0 59 -12.60 12.60 -9.00 9.00
r 6.2376 1 13 exp 210 ------- 0 1.0 13.0 2 55 -14.70 14.70 -11.10 11.10
r 6.2685 24 11 exp 210 ------- 0 24.1 11.1 0 56 -7.80 7.80 -11.70 11.70
r 6.2708 3 15 exp 210 ------- 0 3.0 15.0 4 57 -14.10 14.10 -10.50 10.50
- 6.3350 20 7 exp 210 ------- 0 20.1 7.1 5 50 -9.00 9.00 -12.90 12.90
r 6.3356 20 7 exp 210 ------- 0 20.1 7.1 4 47 -9.00 9.00 -12.90 12.90
r 6.3745 16 3 exp 210 ------- 0 16.1 3.1 2 58 -10.20 10.20 -14.10 14.10
r 6.4572 8 20 exp 210 ------- 0 8.0 20.0 0 59 -12.60 12.60 -9.00 9.00
+ 6.4835 20 7 exp 210 ------- 0 20.1 7.1 7 60 -9.00 9.00 -12.90 12.90
- 6.5758 20 7 exp 210 ------- 0 20.1 7.1 6 53 -9.00 9.00 -12.90 12.90
r 6.5765 20 7 exp 210 ------- 0 20.1 7.1 5 50 -9.00 9.00 -12.90 12.90
+ 6.6712 10 22 exp 210 ------- 0 10.0 22.0 0 61 -12.00 12.00 -8.40 8.40
- 6.6712 10 22 exp 210 ------- 0 10.0 22.0 0 61 -12.00 12.00 -8.40 8.40
+ 6.8112 12 24 exp 210 ------- 0 12.0 24.0 2 62 -11.40 11.40 -7.80 7.80
- 6.8112 12 24 exp 210 ------- 0 12.0 24.0 2 62 -11.40 11.40 -7.80 7.80
- 6.8167 20 7 exp 210 ------- 0 20.1 7.1 7 60 -9.00 9.00 -12.90 12.90
r 6.8173 20 7 exp 210 ------- 0 20.1 7.1 6 53 -9.00 9.00 -12.90 12.90
+ 6.8297 2 14 exp 210 ------- 0 2.0 14.0 0 63 -14.40 14.40 -10.80 10.80
- 6.8297 2 14 exp 210 ------- 0 2.0 14.0 0 63 -14.40 14.40 -10.80 10.80
r 6.9124 10 22 exp 210 ------- 0 10.0 22.0 0 61 -12.00 12.00 -8.40 8.40
+ 6.9431 2 14 exp 210 ------- 0 2.0 14.0 1 64 -14.40 14.40 -10.80 10.80
+ 7.0427 3 15 exp 210 ------- 0 3.0 15.0 5 65 -14.10 14.10 -10.50 10.50
- 7.0427 3 15 exp 210 ------- 0 3.0 15.0 5 65 -14.10 14.10 -10.50 10.50
r 7.0522 12 24 exp 210 ------- 0 12.0 24.0 2 62 -11.40 11.40 -7.80 7.80
r 7.0582 20 7 exp 210 ------- 0 20.1 7.1 7 60 -9.00 9.00 -12.90 12.90
r 7.0717 2 14 exp 210 ------- 0 2.0 14.0 0 63 -14.40 14.40 -10.80 10.80
- 7.0724 2 14 exp 210 ------- 0 2.0 14.0 1 64 -14.40 14.40 -10.80 10.80
+ 7.1488 6 18 exp 210 ------- 0 6.0 18.0 6 66 -13.20 13.20 -9.60 9.60
- 7.1488 6 18 exp 210 ------- 0 6.0 18.0 6 66 -13.20 13.20 -9.60 9.60
r 7.2847 3 15 exp 210 ------- 0 3.0 15.0 5 65 -14.10 14.10 -10.50 10.50
r 7.3144 2 14 exp 210 ------- 0 2.0 14.0 1 64 -14.40 14.40 -10.80 10.80
r 7.3904 6 18 exp 210 ------- 0 6.0 18.0 6 66 -13.20 13.20 -9.60 9.60
+ 7.4095 19 6 exp 210 ------- 0 19.1 6.1 1 67 -9.30 9.30 -13.20 13.20
- 7.4095 19 6 exp 210 ------- 0 19.1 6.1 1 67 -9.30 9.30 -13.20 13.20
+ 7.4841 21 8 exp 210 ------- 0 21.1 8.1 3 68 -8.70 8.70 -12.60 12.60
- 7.4841 21 8 exp 210 ------- 0 21.1 8.1 3 68 -8.70 8.70 -12.60 12.60
+ 7.4898 3 15 exp 210 ------- 0 3.0 15.0 6 69 -14.10 14.10 -10.50 10.50
- 7.4898 3 15 exp 210 ------- 0 3.0 15.0 6 69 -14.10 14.10 -10.50 10.50
r 7.6511 19 6 exp 210 ------- 0 19.1 6.1 1 67 -9.30 9.30 -13.20 13.20
+ 7.6789 17 4 exp 210 ------- 0 17.1 4.1 4 70 -9.90 9.90 -13.80 13.80
- 7.6789 17 4 exp 210 ------- 0 17.1 4.1 4 70 -9.90 9.90 -13.80 13.80
r 7.7255 21 8 exp 210 ------- 0 21.1 8.1 3 68 -8.70 8.70 -12.60 12.60
r 7.7317 3 15 exp 210 ------- 0 3.0 15.0 6 69 -14.10 14.10 -10.50 10.50
+ 7.7706 2 14 exp 210 ------- 0 2.0 14.0 2 71 -14.40 14.40 -10.80 10.80
- 7.7706 2 14 exp 210 ------- 0 2.0 14.0 2 71 -14.40 14.40 -10.80 10.80
+ 7.8169 22 9 exp 210 ------- 0 22.1 9.1 0 72 -8.40 8.40 -12.30 12.30
- 7.8169 22 9 exp 210 ------- 0 22.1 9.1 0 72 -8.40 8.40 -12.30 12.30
+ 7.8591 3 15 exp 210 ------- 0 3.0 15.0 7 73 -14.10 14.10 -10.50 10.50
- 7.8591 3 15 exp 210 ------- 0 3.0 15.0 7 73 -14.10 14.10 -10.50 10.50
r 7.9207 17 4 exp 210 ------- 0 17.1 4.1 4 70 -9.90 9.90 -13.80 13.80
+ 7.9331 4 16 exp 210 ------- 0 4.0 16.0 2 74 -13.80 13.80 -10.20 10.20
- 7.9331 4 16 exp 210 ------- 0 4.0 16.0 2 74 -13.80 13.80 -10.20 10.20
+ 7.9403 21 8 exp 210 ------- 0 21.1 8.1 4 75 -8.70 8.70 -12.60 12.60
- 7.9403 21 8 exp 210 ------- 0 21.1 8.1 4 75 -8.70 8.70 -12.60 12.60
+ 7.9924 25 12 exp 210 ------- 0 25.1 12.1 2 76 -7.50 7.50 -11.40 11.40
- 7.9924 25 12 exp 210 ------- 0 25.1 12.1 2 76 -7.50 7.50 -11.40 11.40
r 8.0127 2 14 exp 210 ------- 0 2.0 14.0 2 71 -14.40 14.40 -10.80 10.80
r 8.0583 22 9 exp 210 ------- 0 22.1 9.1 0 72 -8.40 8.40 -12.30 12.30
r 8.1011 3 15 exp 210 ------- 0 3.0 15.0 7 73 -14.10 14.10 -10.50 10.50
r 8.1749 4 16 exp 210 ------- 0 4.0 16.0 2 74 -13.80 13.80 -10.20 10.20
r 8.1817 21 8 exp 210 ------- 0 21.1 8.1 4 75 -8.70 8.70 -12.60 12.60
r 8.2334 25 12 exp 210 ------- 0 25.1 12.1 2 76 -7.50 7.50 -11.40 11.40
+ 8.2337 17 4 exp 210 ------- 0 17.1 4.1 5 77 -9.90 9.90 -13.80 13.80
- 8.2337 17 4 exp 210 ------- 0 17.1 4.1 5 77 -9.90 9.90 -13.80 13.80
+ 8.3582 24 11 exp 210 ------- 0 24.1 11.1 1 78 -7.80 7.80 -11.70 11.70
- 8.3582 24 11 exp 210 ------- 0 24.1 11.1 1 78 -7.80 7.80 -11.70 11.70
r 8.4755 17 4 exp 210 ------- 0 17.1 4.1 5 77 -9.90 9.90 -13.80 13.80
+ 8.5632 7 19 exp 210 ------- 0 7.0 19.0 0 79 -12.90 12.90 -9.30 9.30
- 8.5632 7 19 exp 210 ------- 0 7.0 19.0 0 79 -12.90 12.90 -9.30 9.30
r 8.5993 24 11 exp 210 ------- 0 24.1 11.1 1 78 -7.80 7.80 -11.70 11.70
+ 8.6123 6 18 exp 210 ------- 0 6.0 18.0 7 80 -13.20 13.20 -9.60 9.60
- 8.6123 6 18 exp 210 ------- 0 6.0 18.0 7 80 -13.20 13.20 -9.60 9.60
+ 8.6155 24 11 exp 210 ------- 0 24.1 11.1 2 81 -7.80 7.80 -11.70 11.70
- 8.6155 24 11 exp 210 ------- 0 24.1 11.1 2 81 -7.80 7.80 -11.70 11.70
+ 8.6430 6 18 exp 210 ------- 0 6.0 18.0 8 82 -13.20 13.20 -9.60 9.60
+ 8.7148 5 17 exp 210 ------- 0 5.0 17.0 3 83 -13.50 13.50 -9.90 9.90
- 8.7148 5 17 exp 210 ------- 0 5.0 17.0 3 83 -13.50 13.50 -9.90 9.90
+ 8.7159 19 6 exp 210 ------- 0 19.1 6.1 2 84 -9.30 9.30 -13.20 13.20
- 8.7159 19 6 exp 210 ------- 0 19.1 6.1 2 84 -9.30 9.30 -13.20 13.20
+ 8.7748 4 16 exp 210 ------- 0 4.0 16.0 3 85 -13.80 13.80 -10.20 10.20
- 8.7748 4 16 exp 210 ------- 0 4.0 16.0 3 85 -13.80 13.80 -10.20 10.20
+ 8.7930 13 25 exp 210 ------- 0 13.1 25.0 1 86 -11.10 11.10 -7.50 7.50
- 8.7930 13 25 exp 210 ------- 0 13.1 25.0 1 86 -11.10 11.10 -7.50 7.50
r 8.8048 7 19 exp 210 ------- 0 7.0 19.0 0 79 -12.90 12.90 -9.30 9.30
+ 8.8252 15 2 exp 210 ------- 0 15.1 2.1 1 87 -10.50 10.50 -14.40 14.40
- 8.8252 15 2 exp 210 ------- 0 15.1 2.1 1 87 -10.50 10.50 -14.40 14.40
r 8.8539 6 18 exp 210 ------- 0 6.0 18.0 7 80 -13.20 13.20 -9.60 9.60
- 8.8545 6 18 exp 210 ------- 0 6.0 18.0 8 82 -13.20 13.20 -9.60 9.60
r 8.8566 24 11 exp 210 ------- 0 24.1 11.1 2 81 -7.80 7.80 -11.70 11.70
c 8.9560 5 17 exp 210 ------- 0 5.0 17.0 3 83 -13.50 13.50 -9.90 9.90
+ 8.9565 23 10 exp 210 ------- 0 23.1 10.1 4 88 -8.10 8.10 -12.00 12.00
- 8.9565 23 10 exp 210 ------- 0 23.1 10.1 4 88 -8.10 8.10 -12.00 12.00
c 8.9566 19 6 exp 210 ------- 0 19.1 6.1 2 84 -9.30 9.30 -13.20 13.20
+ 8.9742 18 5 exp 210 ------- 0 18.1 5.1 5 89 -9.60 9.60 -13.50 13.50
- 8.9742 18 5 exp 210 ------- 0 18.1 5.1 5 89 -9.60 9.60 -13.50 13.50
r 9.0167 4 16 exp 210 ------- 0 4.0 16.0 3 85 -13.80 13.80 -10.20 10.20
r 9.0340 13 25 exp 210 ------- 0 13.1 25.0 1 86 -11.10 11.10 -7.50 7.50
r 9.0672 15 2 exp 210 ------- 0 15.1 2.1 1 87 -10.50 10.50 -14.40 14.40
r 9.0961 6 18 exp 210 ------- 0 6.0 18.0 8 82 -13.20 13.20 -9.60 9.60
+ 9.1841 16 3 exp 210 ------- 0 16.1 3.1 3 90 -10.20 10.20 -14.10 14.10
- 9.1841 16 3 exp 210 ------- 0 16.1 3.1 3 90 -10.20 10.20 -14.10 14.10
r 9.1977 23 10 exp 210 ------- 0 23.1 10.1 4 88 -8.10 8.10 -12.00 12.00
r 9.2159 18 5 exp 210 ------- 0 18.1 5.1 5 89 -9.60 9.60 -13.50 13.50
r 9.4260 16 3 exp 210 ------- 0 16.1 3.1 3 90 -10.20 10.20 -14.10 14.10
r 9.4808 19 6 exp 210 ------- 0 19.1 6.1 2 84 -9.30 9.30 -13.20 13.20
+ 9.5923 22 9 exp 210 ------- 0 22.1 9.1 1 91 -8.40 8.40 -12.30 12.30
- 9.5923 22 9 exp 210 ------- 0 22.1 9.1 1 91 -8.40 8.40 -12.30 12.30
+ 9.6649 21 8 exp 210 ------- 0 21.1 8.1 5 92 -8.70 8.70 -12.60 12.60
- 9.6649 21 8 exp 210 ------- 0 21.1 8.1 5 92 -8.70 8.70 -12.60 12.60
r 9.8336 22 9 exp 210 ------- 0 22.1 9.1 1 91 -8.40 8.40 -12.30 12.30
+ 9.8956 13 25 exp 210 ------- 0 13.1 25.0 2 93 -11.10 11.10 -7.50 7.50
- 9.8956 13 25 exp 210 ------- 0 13.1 25.0 2 93 -11.10 11.10 -7.50 7.50
r 9.9063 21 8 exp 210 ------- 0 21.1 8.1 5 92 -8.70 8.70 -12.60 12.60
r 10.1366 13 25 exp 210 ------- 0 13.1 25.0 2 93 -11.10 11.10 -7.50 7.50
+ 10.1651 8 20 exp 210 ------- 0 8.0 20.0 1 94 -12.60 12.60 -9.00 9.00
- 10.1651 8 20 exp 210 ------- 0 8.0 20.0 1 94 -12.60 12.60 -9.00 9.00
r 10.2114 5 17 exp 210 ------- 0 5.0 17.0 3 83 -13.50 13.50 -9.90 9.90
+ 10.2547 24 11 exp 210 ------- 0 24.1 11.1 3 95 -7.80 7.80 -11.70 11.70
- 10.2547 24 11 exp 210 ------- 0 24.1 11.1 3 95 -7.80 7.80 -11.70 11.70
+ 10.3370 7 19 exp 210 ------- 0 7.0 19.0 1 96 -12.90 12.90 -9.30 9.30
- 10.3370 7 19 exp 210 ------- 0 7.0 19.0 1 96 -12.90 12.90 -9.30 9.30
+ 10.3659 1 13 exp 210 ------- 0 1.0 13.0 3 97 -14.70 14.70 -11.10 11.10
- 10.3659 1 13 exp 210 ------- 0 1.0 13.0 3 97 -14.70 14.70 -11.10 11.10
r 10.4066 8 20 exp 210 ------- 0 8.0 20.0 1 94 -12.60 12.60 -9.00 9.00
+ 10.4445 22 9 exp 210 ------- 0 22.1 9.1 2 98 -8.40 8.40 -12.30 12.30
- 10.4445 22 9 exp 210 ------- 0 22.1 9.1 2 98 -8.40 8.40 -12.30 12.30
r 10.4958 24 11 exp 210 ------- 0 24.1 11.1 3 95 -7.80 7.80 -11.70 11.70
+ 10.5077 12 24 exp 210 ------- 0 12.0 24.0 3 99 -11.40 11.40 -7.80 7.80
- 10.5077 12 24 exp 210 ------- 0 12.0 24.0 3 99 -11.40 11.40 -7.80 7.80
r 10.5785 7 19 exp 210 ------- 0 7.0 19.0 1 96 -12.90 12.90 -9.30 9.30
r 10.6081 1 13 exp 210 ------- 0 1.0 13.0 3 97 -14.70 14.70 -11.10 11.10
+ 10.6470 16 3 exp 210 ------- 0 16.1 3.1 4 100 -10.20 10.20 -14.10 14.10
- 10.6470 16 3 exp 210 ------- 0 16.1 3.1 4 100 -10.20 10.20 -14.10 14.10
r 10.6858 22 9 exp 210 ------- 0 22.1 9.1 2 98 -8.40 8.40 -12.30 12.30
r 10.7487 12 24 exp 210 ------- 0 12.0 24.0 3 99 -11.40 11.40 -7.80 7.80
+ 10.7532 12 24 exp 210 ------- 0 12.0 24.0 4 101 -11.40 11.40 -7.80 7.80
- 10.7532 12 24 exp 210 ------- 0 12.0 24.0 4 101 -11.40 11.40 -7.80 7.80
+ 10.8046 22 9 exp 210 ------- 0 22.1 9.1 3 102 -8.40 8.40 -12.30 12.30
- 10.8046 22 9 exp 210 ------- 0 22.1 9.1 3 102 -8.40 8.40 -12.30 12.30
r 10.8889 16 3 exp 210 ------- 0 16.1 3.1 4 100 -10.20 10.20 -14.10 14.10
+ 10.8947 6 18 exp 210 ------- 0 6.0 18.0 9 103 -13.20 13.20 -9.60 9.60
- 10.8947 6 18 exp 210 ------- 0 6.0 18.0 9 103 -13.20 13.20 -9.60 9.60
r 10.9943 12 24 exp 210 ------- 0 12.0 24.0 4 101 -11.40 11.40 -7.80 7.80
+ 11.0037 3 15 exp 210 ------- 0 3.0 15.0 8 104 -14.10 14.10 -10.50 10.50
- 11.0037 3 15 exp 210 ------- 0 3.0 15.0 8 104 -14.10 14.10 -10.50 10.50
r 11.0459 22 9 exp 210 ------- 0 22.1 9.1 3 102 -8.40 8.40 -12.30 12.30
r 11.1364 6 18 exp 210 ------- 0 6.0 18.0 9 103 -13.20 13.20 -9.60 9.60
+ 11.1985 5 17 exp 210 ------- 0 5.0 17.0 4 105 -13.50 13.50 -9.90 9.90
- 11.1985 5 17 exp 210 ------- 0 5.0 17.0 4 105 -13.50 13.50 -9.90 9.90
+ 11.2003 13 25 exp 210 ------- 0 13.1 25.0 3 106 -11.10 11.10 -7.50 7.50
- 11.2003 13 25 exp 210 ------- 0 13.1 25.0 3 106 -11.10 11.10 -7.50 7.50
+ 11.2339 21 8 exp 210 ------- 0 21.1 8.1 6 107 -8.70 8.70 -12.60 12.60
- 11.2339 21 8 exp 210 ------- 0 21.1 8.1 6 107 -8.70 8.70 -12.60 12.60
r 11.2456 3 15 exp 210 ------- 0 3.0 15.0 8 104 -14.10 14.10 -10.50 10.50
+ 11.2633 9 21 exp 210 ------- 0 9.0 21.0 1 108 -12.30 12.30 -8.70 8.70
- 11.2633 9 21 exp 210 ------- 0 9.0 21.0 1 108 -12.30 12.30 -8.70 8.70
+ 11.3267 18 5 exp 210 ------- 0 18.1 5.1 6 109 -9.60 9.60 -13.50 13.50
- 11.3267 18 5 exp 210 ------- 0 18.1 5.1 6 109 -9.60 9.60 -13.50 13.50
+ 11.4322 17 4 exp 210 ------- 0 17.1 4.1 6 110 -9.90 9.90 -13.80 13.80
- 11.4322 17 4 exp 210 ------- 0 17.1 4.1 6 110 -9.90 9.90 -13.80 13.80
r 11.4403 5 17 exp 210 ------- 0 5.0 17.0 4 105 -13.50 13.50 -9.90 9.90
r 11.4413 13 25 exp 210 ------- 0 13.1 25.0 3 106 -11.10 11.10 -7.50 7.50
r 11.4753 21 8 exp 210 ------- 0 21.1 8.1 6 107 -8.70 8.70 -12.60 12.60
+ 11.5003 2 14 exp 210 ------- 0 2.0 14.0 3 111 -14.40 14.40 -10.80 10.80
- 11.5003 2 14 exp 210 ------- 0 2.0 14.0 3 111 -14.40 14.40 -10.80 10.80
r 11.5047 9 21 exp 210 ------- 0 9.0 21.0 1 108 -12.30 12.30 -8.70 8.70
r 11.5684 18 5 exp 210 ------- 0 18.1 5.1 6 109 -9.60 9.60 -13.50 13.50
r 11.6740 17 4 exp 210 ------- 0 17.1 4.1 6 110 -9.90 9.90 -13.80 13.80
+ 11.6937 9 21 exp 210 ------- 0 9.0 21.0 2 112 -12.30 12.30 -8.70 8.70
- 11.6937 9 21 exp 210 ------- 0 9.0 21.0 2 112 -12.30 12.30 -8.70 8.70
r 11.7424 2 14 exp 210 ------- 0 2.0 14.0 3 111 -14.40 14.40 -10.80 10.80
+ 11.8033 23 10 exp 210 ------- 0 23.1 10.1 5 113 -8.10 8.10 -12.00 12.00
- 11.8033 23 10 exp 210 ------- 0 23.1 10.1 5 113 -8.10 8.10 -12.00 12.00
+ 11.8852 2 14 exp 210 ------- 0 2.0 14.0 4 114 -14.40 14.40 -10.80 10.80
- 11.8852 2 14 exp 210 ------- 0 2.0 14.0 4 114 -14.40 14.40 -10.80 10.80
r 11.9350 9 21 exp 210 ------- 0 9.0 21.0 2 112 -12.30 12.30 -8.70 8.70
+ 12.0152 1 13 exp 210 ------- 0 1.0 13.0 4 115 -14.70 14.70 -11.10 11.10
- 12.0152 1 13 exp 210 ------- 0 1.0 13.0 4 115 -14.70 14.70 -11.10 11.10
r 12.0445 23 10 exp 210 ------- 0 23.1 10.1 5 113 -8.10 8.10 -12.00 12.00
r 12.1272 2 14 exp 210 ------- 0 2.0 14.0 4 114 -14.40 14.40 -10.80 10.80
+ 12.1336 7 19 exp 210 ------- 0 7.0 19.0 2 116 -12.90 12.90 -9.30 9.30
- 12.1336 7 19 exp 210 ------- 0 7.0 19.0 2 116 -12.90 12.90 -9.30 9.30
r 12.2574 1 13 exp 210 ------- 0 1.0 13.0 4 115 -14.70 14.70 -11.10 11.10
+ 12.2586 16 3 exp 210 ------- 0 16.1 3.1 5 117 -10.20 10.20 -14.10 14.10
- 12.2586 16 3 exp 210 ------- 0 16.1 3.1 5 117 -10.20 10.20 -14.10 14.10
+ 12.2791 3 15 exp 210 ------- 0 3.0 15.0 9 118 -14.10 14.10 -10.50 10.50
- 12.2791 3 15 exp 210 ------- 0 3.0 15.0 9 118 -14.10 14.10 -10.50 10.50
r 12.3752 7 19 exp 210 ------- 0 7.0 19.0 2 116 -12.90 12.90 -9.30 9.30
r 12.5005 16 3 exp 210 ------- 0 16.1 3.1 5 117 -10.20 10.20 -14.10 14.10
r 12.5210 3 15 exp 210 ------- 0 3.0 15.0 9 118 -14.10 14.10 -10.50 10.50
+ 12.5277 5 17 exp 210 ------- 0 5.0 17.0 5 119 -13.50 13.50 -9.90 9.90
- 12.5277 5 17 exp 210 ------- 0 5.0 17.0 5 119 -13.50 13.50 -9.90 9.90
+ 12.5717 14 1 exp 210 ------- 0 14.1 1.1 4 120 -10.80 10.80 -14.70 14.70
- 12.5717 14 1 exp 210 ------- 0 14.1 1.1 4 120 -10.80 10.80 -14.70 14.70
+ 12.6246 20 7 exp 210 ------- 0 20.1 7.1 8 121 -9.00 9.00 -12.90 12.90
- 12.6246 20 7 exp 210 ------- 0 20.1 7.1 8 121 -9.00 9.00 -12.90 12.90
+ 12.6560 17 4 exp 210 ------- 0 17.1 4.1 7 122 -9.90 9.90 -13.80 13.80
- 12.6560 17 4 exp 210 ------- 0 17.1 4.1 7 122 -9.90 9.90 -13.80 13.80
+ 12.6805 12 24 exp 210 ------- 0 12.0 24.0 5 123 -11.40 11.40 -7.80 7.80
- 12.6805 12 24 exp 210 ------- 0 12.0 24.0 5 123 -11.40 11.40 -7.80 7.80
+ 12.7139 12 24 exp 210 ------- 0 12.0 24.0 6 124 -11.40 11.40 -7.80 7.80
+ 12.7649 14 1 exp 210 ------- 0 14.1 1.1 5 125 -10.80 10.80 -14.70 14.70
r 12.7694 5 17 exp 210 ------- 0 5.0 17.0 5 119 -13.50 13.50 -9.90 9.90
- 12.8131 14 1 exp 210 ------- 0 14.1 1.1 5 125 -10.80 10.80 -14.70 14.70
r 12.8139 14 1 exp 210 ------- 0 14.1 1.1 4 120 -10.80 10.80 -14.70 14.70
r 12.8661 20 7 exp 210 ------- 0 20.1 7.1 8 121 -9.00 9.00 -12.90 12.90
r 12.8978 17 4 exp 210 ------- 0 17.1 4.1 7 122 -9.90 9.90 -13.80 13.80
r 12.9216 12 24 exp 210 ------- 0 12.0 24.0 5 123 -11.40 11.40 -7.80 7.80
- 12.9221 12 24 exp 210 ------- 0 12.0 24.0 6 124 -11.40 11.40 -7.80 7.80
+ 12.9336 21 8 exp 210 ------- 0 21.1 8.1 7 126 -8.70 8.70 -12.60 12.60
- 12.9336 21 8 exp 210 ------- 0 21.1 8.1 7 126 -8.70 8.70 -12.60 12.60
+ 13.0440 24 11 exp 210 ------- 0 24.1 11.1 4 127 -7.80 7.80 -11.70 11.70
- 13.0440 24 11 exp 210 ------- 0 24.1 11.1 4 127 -7.80 7.80 -11.70 11.70
r 13.0553 14 1 exp 210 ------- 0 14.1 1.1 5 125 -10.80 10.80 -14.70 14.70
+ 13.0784 18 5 exp 210 ------- 0 18.1 5.1 7 128 -9.60 9.60 -13.50 13.50
- 13.0784 18 5 exp 210 ------- 0 18.1 5.1 7 128 -9.60 9.60 -13.50 13.50
r 13.1632 12 24 exp 210 ------- 0 12.0 24.0 6 124 -11.40 11.40 -7.80 7.80
r 13.1750 21 8 exp 210 ------- 0 21.1 8.1 7 126 -8.70 8.70 -12.60 12.60
+ 13.1775 21 8 exp 210 ------- 0 21.1 8.1 8 129 -8.70 8.70 -12.60 12.60
- 13.1775 21 8 exp 210 ------- 0 21.1 8.1 8 129 -8.70 8.70 -12.60 12.60
+ 13.2579 12 24 exp 210 ------- 0 12.0 24.0 7 130 -11.40 11.40 -7.80 7.80
- 13.2579 12 24 exp 210 ------- 0 12.0 24.0 7 130 -11.40 11.40 -7.80 7.80
r 13.2851 24 11 exp 210 ------- 0 24.1 11.1 4 127 -7.80 7.80 -11.70 11.70
+ 13.3197 8 20 exp 210 ------- 0 8.0 20.0 2 131 -12.60 12.60 -9.00 9.00
- 13.3197 8 20 exp 210 ------- 0 8.0 20.0 2 131 -12.60 12.60 -9.00 9.00
r 13.3201 18 5 exp 210 ------- 0 18.1 5.1 7 128 -9.60 9.60 -13.50 13.50
+ 13.3327 4 16 exp 210 ------- 0 4.0 16.0 4 132 -13.80 13.80 -10.20 10.20
- 13.3327 4 16 exp 210 ------- 0 4.0 16.0 4 132 -13.80 13.80 -10.20 10.20
+ 13.3507 17 4 exp 210 ------- 0 17.1 4.1 8 133 -9.90 9.90 -13.80 13.80
- 13.3507 17 4 exp 210 ------- 0 17.1 4.1 8 133 -9.90 9.90 -13.80 13.80
+ 13.3871 24 11 exp 210 ------- 0 24.1 11.1 5 134 -7.80 7.80 -11.70 11.70
- 13.3871 24 11 exp 210 ------- 0 24.1 11.1 5 134 -7.80 7.80 -11.70 11.70
r 13.4189 21 8 exp 210 ------- 0 21.1 8.1 8 129 -8.70 8.70 -12.60 12.60
+ 13.4530 11 23 exp 210 ------- 0 11.0 23.0 1 135 -11.70 11.70 -8.10 8.10
- 13.4530 11 23 exp 210 ------- 0 11.0 23.0 1 135 -11.70 11.70 -8.10 8.10
+ 13.4788 6 18 exp 210 ------- 0 6.0 18.0 10 136 -13.20 13.20 -9.60 9.60
- 13.4788 6 18 exp 210 ------- 0 6.0 18.0 10 136 -13.20 13.20 -9.60 9.60
r 13.4990 12 24 exp 210 ------- 0 12.0 24.0 7 130 -11.40 11.40 -7.80 7.80
r 13.5612 8 20 exp 210 ------- 0 8.0 20.0 2 131 -12.60 12.60 -9.00 9.00
r 13.5746 4 16 exp 210 ------- 0 4.0 16.0 4 132 -13.80 13.80 -10.20 10.20
r 13.5925 17 4 exp 210 ------- 0 17.1 4.1 8 133 -9.90 9.90 -13.80 13.80
r 13.6282 24 11 exp 210 ------- 0 24.1 11.1 5 134 -7.80 7.80 -11.70 11.70
+ 13.6799 10 22 exp 210 ------- 0 10.0 22.0 1 137 -12.00 12.00 -8.40 8.40
- 13.6799 10 22 exp 210 ------- 0 10.0 22.0 1 137 -12.00 12.00 -8.40 8.40
r 13.6942 11 23 exp 210 ------- 0 11.0 23.0 1 135 -11.70 11.70 -8.10 8.10
+ 13.7013 2 14 exp 210 ------- 0 2.0 14.0 5 138 -14.40 14.40 -10.80 10.80
- 13.7013 2 14 exp 210 ------- 0 2.0 14.0 5 138 -14.40 14.40 -10.80 10.80
r 13.7205 6 18 exp 210 ------- 0 6.0 18.0 10 136 -13.20 13.20 -9.60 9.60